          ******************************************************
          *      GAMESS VERSION = 30 JUN 2019 R1 Patch 1       *
          *             FROM IOWA STATE UNIVERSITY             *
          * M.W.SCHMIDT, K.K.BALDRIDGE, J.A.BOATZ, S.T.ELBERT, *
          *   M.S.GORDON, J.H.JENSEN, S.KOSEKI, N.MATSUNAGA,   *
          *          K.A.NGUYEN, S.J.SU, T.L.WINDUS,           *
          *       TOGETHER WITH M.DUPUIS, J.A.MONTGOMERY       *
          *         J.COMPUT.CHEM.  14, 1347-1363(1993)        *
          *************** 64 BIT WINDOWS VERSION ***************

  SINCE 1993, STUDENTS AND POSTDOCS WORKING AT IOWA STATE UNIVERSITY
  AND ALSO IN THEIR VARIOUS JOBS AFTER LEAVING ISU HAVE MADE IMPORTANT
  CONTRIBUTIONS TO THE CODE:
     IVANA ADAMOVIC, CHRISTINE AIKENS, YURI ALEXEEV, POOJA ARORA,
     ANDREY ASADCHEV, ROB BELL, PRADIPTA BANDYOPADHYAY, JONATHAN BENTZ,
     COLLEEN BERTONI, BRETT BODE, KURT BRORSEN, CALEB CARLIN, GALINA CHABAN,
     WEI CHEN, CHEOL HO CHOI, PAUL DAY, ALBERT DEFUSCO, NUWAN DESILVA,
     TIM DUDLEY, DMITRI FEDOROV, ALEX FINDLATER, GRAHAM FLETCHER, 
     MARK FREITAG, KURT GLAESEMANN, ANASTASIA GUNINA,
     DAN KEMP, GRANT MERRILL, NORIYUKI MINEZAWA, JONATHAN MULLIN,
     TAKESHI NAGATA, SEAN NEDD, HEATHER NETZLOFF, BOSILJKA NJEGIC, RYAN OLSON,
     MIKE PAK, BUU PHAM,
     SPENCER PRUITT, LUKE ROSKOP, JIM SHOEMAKER, LYUDMILA SLIPCHENKO,
     TONY SMITH, SAROM SOK LEANG, JIE SONG, TETSUYA TAKETSUGU, SIMON WEBB,
     PENG XU, SOOHAENG YOO, FEDERICO ZAHARIEV

  ADDITIONAL CODE HAS BEEN PROVIDED BY COLLABORATORS IN OTHER GROUPS:
     IOWA STATE UNIVERSITY:
          JOE IVANIC, AARON WEST, LAIMUTIS BYTAUTAS, KLAUS RUEDENBERG
     UNIVERSITY OF TOKYO: KIMIHIKO HIRAO, TAKAHITO NAKAJIMA,
          TAKAO TSUNEDA, MUNEAKI KAMIYA, SUSUMU YANAGISAWA,
          KIYOSHI YAGI, MAHITO CHIBA, SEIKEN TOKURA, NAOAKI KAWAKAMI
     UNIVERSITY OF AARHUS: FRANK JENSEN
     UNIVERSITY OF IOWA: VISVALDAS KAIRYS, HUI LI
     NATIONAL INST. OF STANDARDS AND TECHNOLOGY: WALT STEVENS, DAVID GARMER
     UNIVERSITY OF PISA: BENEDETTA MENNUCCI, JACOPO TOMASI
     UNIVERSITY OF MEMPHIS: HENRY KURTZ, PRAKASHAN KORAMBATH
     UNIVERSITY OF ALBERTA: TOBY ZENG, MARIUSZ KLOBUKOWSKI
     UNIVERSITY OF NEW ENGLAND: MARK SPACKMAN
     MIE UNIVERSITY: HIROAKI UMEDA
     NAT. INST. OF ADVANCED INDUSTRIAL SCIENCE AND TECHNOLOGY: KAZUO KITAURA
     MICHIGAN STATE UNIVERSITY:
          KAROL KOWALSKI, MARTA WLOCH, JEFFREY GOUR, JESSE LUTZ,
          WEI LI, JUN SHEN, J. EMILIANO DEUSTUA, PIOTR PIECUCH
     UNIVERSITY OF MINNESOTA:
          YINAN SHU
     UNIVERSITY OF SILESIA: MONIKA MUSIAL, STANISLAW KUCHARSKI
     FACULTES UNIVERSITAIRES NOTRE-DAME DE LA PAIX:
          OLIVIER QUINET, BENOIT CHAMPAGNE
     UNIVERSITY OF CALIFORNIA - SANTA BARBARA: BERNARD KIRTMAN
     INSTITUTE FOR MOLECULAR SCIENCE:
          KAZUYA ISHIMURA, MICHIO KATOUDA, AND SHIGERU NAGASE
     UNIVERSITY OF NOTRE DAME: ANNA POMOGAEVA, DAN CHIPMAN
     KYUSHU UNIVERSITY:
          HARUYUKI NAKANO,
          FENG LONG GU, JACEK KORCHOWIEC, MARCIN MAKOWSKI, AND YURIKO AOKI,
          HIROTOSHI MORI AND EISAKU MIYOSHI
     PENNSYLVANIA STATE UNIVERSITY:
          TZVETELIN IORDANOV, CHET SWALINA, JONATHAN SKONE,
          SHARON HAMMES-SCHIFFER
     WASEDA UNIVERSITY:
          MASATO KOBAYASHI, TOMOKO AKAMA, TSUGUKI TOUMA,
          TAKESHI YOSHIKAWA, YASUHIRO IKABATA, JUNJI SEINO,
          YUYA NAKAJIMA, HIROMI NAKAI
     NANJING UNIVERSITY: SHUHUA LI
     UNIVERSITY OF NEBRASKA:
          PEIFENG SU, DEJUN SI, NANDUN THELLAMUREGE, YALI WANG, HUI LI
     UNIVERSITY OF ZURICH: ROBERTO PEVERATI, KIM BALDRIDGE
     N. COPERNICUS UNIVERSITY AND JACKSON STATE UNIVERSITY:
          MARIA BARYSZ
     UNIVERSITY OF COPENHAGEN: Jimmy Kromann, CASPER STEINMANN
     TOKYO INSTITUTE OF TECHNOLOGY: HIROYA NAKATA
     NAGOYA UNIVERSITY: YOSHIO NISHIMOTO, STEPHAN IRLE
     MOSCOW STATE UNIVERSITY: VLADIMIR MIRONOV
     A.N.NESMEYANOV INSTITUTE OF ORGANOELEMENT COMPOUNDS OF RUSSIAN ACADEMY OF SCIENCES:
          IGOR S. GERASIMOV

 EXECUTION OF GAMESS BEGUN Fri Sep 11 09:23:46 2020

            ECHO OF THE FIRST FEW INPUT CARDS -
 INPUT CARD>!   File created by the GAMESS Input Deck Generator Plugin for Avogadro         
 INPUT CARD> $BASIS GBASIS=PM3 $END                                                         
 INPUT CARD> $CONTRL SCFTYP=RHF RUNTYP=SURFACE MULT=1 ICHARG=-1  NZVAR=1 $END               
 INPUT CARD> $CONTRL EXETYP=RUN $END                                                        
 INPUT CARD> $STATPT OPTTOL=0.0005 NSTEP=50 NOREG=5 $END                                    
 INPUT CARD> $ZMAT DLC=.t. auto=.t. nonvdw(1)=1,2 1,6 ifzmat(1)=1,1,6 SCAN=.T.  $END        
 INPUT CARD> $surf ndisp1=25 disp1=-0.1  ivec1(1)=1,6 orig1=4.00  IGRP1(1)=6 $end           
 INPUT CARD> $DATA                                                                          
 INPUT CARD>Title                                                                           
 INPUT CARD>C1                                                                              
 INPUT CARD>C     6.0    -1.54658     1.09202     0.00047                                   
 INPUT CARD>Br   35.0     0.38663     1.10084     0.00241                                   
 INPUT CARD>H     1.0    -1.92083     2.04168    -0.43391                                   
 INPUT CARD>H     1.0    -1.91747     0.99029     1.04104                                   
 INPUT CARD>H     1.0    -1.91229     0.23861    -0.60702                                   
 INPUT CARD>Cl   17.0    -5.21361     1.02852    -0.01116                                   
 INPUT CARD> $END                                                                           
    1000000 WORDS OF MEMORY AVAILABLE

     BASIS OPTIONS
     -------------
     GBASIS=PM3          IGAUSS=       0      POLAR=NONE    
     NDFUNC=       0     NFFUNC=       0     DIFFSP=       F
     NPFUNC=       0      DIFFS=       F     BASNAM=        


     RUN TITLE
     ---------
 Title                                                                           

 THE POINT GROUP OF THE MOLECULE IS C1      
 THE ORDER OF THE PRINCIPAL AXIS IS     0

 ATOM      ATOMIC                      COORDINATES (BOHR)
           CHARGE         X                   Y                   Z
 C           6.0    -2.9226124181        2.0636185731        0.0008881712
 BR         35.0     0.7306247586        2.0802859563        0.0045542396
 H           1.0    -3.6298423690        3.8582157546       -0.8199710033
 H           1.0    -3.6234928897        1.8713767484        1.9672803423
 H           1.0    -3.6137041091        0.4509075179       -1.1471014691
 CL         17.0    -9.8522943068        1.9436209729       -0.0210893420

          INTERNUCLEAR DISTANCES (ANGS.)
          ------------------------------

                1 C          2 BR         3 H          4 H          5 H     

   1 C       0.0000000    1.9332311 *  1.1093255 *  1.1093666 *  1.1095479 *
   2 BR      1.9332311 *  0.0000000    2.5298076 *  2.5297926 *  2.5297981 *
   3 H       1.1093255 *  2.5298076 *  0.0000000    1.8113282 *  1.8113811 *
   4 H       1.1093666 *  2.5297926 *  1.8113282 *  0.0000000    1.8113949 *
   5 H       1.1095479 *  2.5297981 *  1.8113811 *  1.8113949 *  0.0000000  
   6 CL      3.6675982    5.6007234    3.4709669    3.4602204    3.4464069  

                6 CL    

   1 C       3.6675982  
   2 BR      5.6007234  
   3 H       3.4709669  
   4 H       3.4602204  
   5 H       3.4464069  
   6 CL      0.0000000  

  * ... LESS THAN  3.000


 TOTAL NUMBER OF BASIS SET SHELLS             =    6
 NUMBER OF CARTESIAN GAUSSIAN BASIS FUNCTIONS =   15
 NUMBER OF ELECTRONS                          =   22
 CHARGE OF MOLECULE                           =   -1
 SPIN MULTIPLICITY                            =    1
 NUMBER OF OCCUPIED ORBITALS (ALPHA)          =   11
 NUMBER OF OCCUPIED ORBITALS (BETA )          =   11
 TOTAL NUMBER OF ATOMS                        =    6
 THE NUCLEAR REPULSION ENERGY IS      167.6452141257

 THE PARAMETERS USED IN THIS CALCULATION ARE DESCRIBED IN:

  H: (PM3): J. J. P. STEWART, J. COMP. CHEM.     10, 209 (1989).                
  C: (PM3): J. J. P. STEWART, J. COMP. CHEM.     10, 209 (1989).                
 CL: (PM3): J. J. P. STEWART, J. COMP. CHEM.     10, 209 (1989).                
 BR: (PM3): J. J. P. STEWART, J. COMP. CHEM.     10, 209 (1989).                

 THERE ARE    3 HEAVY AND    3 LIGHT ATOMS,
 YIELDING A TOTAL OF       393 MOPAC 2E- INTEGRALS.

     $CONTRL OPTIONS
     ---------------
 SCFTYP=RHF          RUNTYP=SURFACE      EXETYP=RUN     
 MPLEVL=       0     CITYP =NONE         CCTYP =NONE         VBTYP =NONE    
 DFTTYP=NONE         TDDFT =NONE    
 MULT  =       1     ICHARG=      -1     NZVAR =       1     COORD =UNIQUE  
 PP    =NONE         RELWFN=NONE         LOCAL =NONE         NUMGRD=       F
 ISPHER=      -1     NOSYM =       0     MAXIT =      30     UNITS =ANGS    
 PLTORB=       F     MOLPLT=       F     AIMPAC=       F     FRIEND=        
 NPRINT=       7     IREST =       0     GEOM  =INPUT   
 NORMF =       0     NORMP =       0     ITOL  =      20     ICUT  =       9
 INTTYP=BEST         GRDTYP=BEST         QMTTOL= 1.0E-06

     $SYSTEM OPTIONS
     ---------------
  REPLICATED MEMORY=     1000000 WORDS (ON EVERY NODE).
 DISTRIBUTED MEMDDI=           0 MILLION WORDS IN AGGREGATE,
 MEMDDI DISTRIBUTED OVER   1 PROCESSORS IS           0 WORDS/PROCESSOR.
 TOTAL MEMORY REQUESTED ON EACH PROCESSOR=     1000000 WORDS.
 TIMLIM=      525600.00 MINUTES, OR     365.0 DAYS.
 PARALL= F  BALTYP=  DLB     KDIAG=    0  COREFL= F
 MXSEQ2=     300 MXSEQ3=     150  mem10=         0

          ----------------
          PROPERTIES INPUT
          ----------------

     MOMENTS            FIELD           POTENTIAL          DENSITY
 IEMOM =       1   IEFLD =       0   IEPOT =       0   IEDEN =       0
 WHERE =COMASS     WHERE =NUCLEI     WHERE =NUCLEI     WHERE =NUCLEI  
 OUTPUT=BOTH       OUTPUT=BOTH       OUTPUT=BOTH       OUTPUT=BOTH    
 IEMINT=       0   IEFINT=       0                     IEDINT=       0
                                                       MORB  =       0
          EXTRAPOLATION IN EFFECT
 ORBITAL PRINTING OPTION: NPREO=     1    15     2     1

     -------------------------------
     INTEGRAL TRANSFORMATION OPTIONS
     -------------------------------
     NWORD  =            0
     CUTOFF = 1.0E-09     MPTRAN =       0
     DIRTRF =       F     AOINTS =DUP     

          ----------------------
          INTEGRAL INPUT OPTIONS
          ----------------------
 NOPK  =       1 NORDER=       0 SCHWRZ=       T
 **** ERROR READING INPUT GROUP $ZMAT     *****
 THE PROBLEM IS WITH THIS INPUT LINE, NEAR THE X MARKER
 $ZMAT DLC=.T. AUTO=.T. NONVDW(1)=1,2 1,6 IFZMAT(1)=1,1,6 SCAN=.T.  $END        
                                                               X
 THE ONLY KEYWORDS ACCEPTED IN THIS GROUP ARE:
  IZMAT     SIJ       IJS       DLC       AUTO      NONVDW  
  IXZMAT    IFZMAT    IRZMAT    FVALUE  
 
 
 -----------------------------------------------
  STATISTICS ON AUTOMATIC COORDINATE GENERATION 
 -----------------------------------------------
  NUMBER OF USER SPECIFIED BONDS                                 2
  NUMBER OF BONDS                                                6
  NUMBER OF ANGLES                                              14
  NUMBER OF TORSIONS                                             0
  NUMBER OF EXTRA COORD.                                         0
  NUMBER OF EXTRA COORD. FOR CONSTRAINTS                         0
  NUMBER OF CONSTRAINED COORD.                                   1
 
  TOTAL NUMBER OF PRIMITIVES                                    20
 -----------------------------------------------

   --- ENCODED Z MATRIX ---
 COORD  TYPE   I   J   K   L   M   N
    1      1    1   6
    2      1    1   3
    3      1    1   4
    4      1    1   5
    5      1    1   2
    6      1    1   2
    7      2    2   1   5
    8      2    2   1   6
    9      2    2   1   5
   10      2    2   1   3
   11      2    2   1   3
   12      2    2   1   4
   13      2    2   1   6
   14      2    2   1   4
   15      2    3   1   5
   16      2    3   1   6
   17      2    3   1   4
   18      2    4   1   5
   19      2    4   1   6
   20      2    5   1   6

          INDEP./SYM. INTERNAL COORDINATES
          --------------------------------
 CRD  1=   1.0000 (  1)
 CRD  2=   0.4939 (  8)  0.4939 ( 13) -0.4220 ( 16)  0.2497 ( 17) -0.2295 ( 18)
           0.4605 ( 20)
 CRD  3=  -0.2576 (  2)  0.4599 (  3) -0.2023 (  4)  0.1591 ( 12)  0.1591 ( 14)
          -0.6336 ( 15)  0.2811 ( 17)  0.3525 ( 18)
 CRD  4=  -0.4025 (  2)  0.4321 (  4)  0.1646 (  8)  0.1646 ( 13) -0.5521 ( 17)
           0.5077 ( 18)
 CRD  5=   0.1716 (  3) -0.2080 (  7) -0.2080 (  9) -0.2359 ( 10) -0.2359 ( 11)
           0.4433 ( 12)  0.4433 ( 14)  0.3502 ( 15)  0.1862 ( 16) -0.1612 ( 17)
          -0.1884 ( 18) -0.3468 ( 19)  0.1612 ( 20)
 CRD  6=  -0.3002 (  2) -0.3064 (  3) -0.3140 (  4)  0.2251 (  7)  0.2251 (  9)
           0.2614 ( 10)  0.2614 ( 11)  0.2450 ( 12)  0.2450 ( 14) -0.2436 ( 15)
          -0.2564 ( 16) -0.2543 ( 17) -0.2344 ( 18) -0.2446 ( 19) -0.2304 ( 20)
 CRD  7=  -0.2247 (  2)  0.2101 (  4)  0.3949 (  7)  0.1149 (  8)  0.3949 (  9)
          -0.3580 ( 10) -0.3580 ( 11)  0.1149 ( 13)  0.2607 ( 16)  0.2730 ( 17)
          -0.2847 ( 18) -0.2932 ( 20)
 CRD  8=   0.4832 (  2)  0.4884 (  3)  0.4950 (  4)  0.1518 (  7)  0.1518 (  9)
           0.1547 ( 10)  0.1547 ( 11)  0.1535 ( 12)  0.1535 ( 14) -0.1537 ( 15)
          -0.1538 ( 16) -0.1511 ( 17) -0.1558 ( 18) -0.1534 ( 19) -0.1528 ( 20)
 CRD  9=  -0.7062 (  5) -0.7062 (  6)
 CRD 10=  -0.3653 (  2)  0.6476 (  3) -0.2824 (  4)  0.1085 (  7)  0.1085 (  9)
           0.1401 ( 10)  0.1401 ( 11) -0.2486 ( 12) -0.2486 ( 14)  0.3450 ( 15)
          -0.1504 ( 17) -0.1946 ( 18)
 CRD 11=  -0.5038 (  2)  0.5429 (  4) -0.2273 (  7) -0.2213 (  8) -0.2273 (  9)
           0.2019 ( 10)  0.2019 ( 11) -0.2213 ( 13)  0.3016 ( 17) -0.2703 ( 18)
 CRD 12=  -0.1232 ( 10) -0.1232 ( 11)  0.2203 ( 12)  0.2203 ( 14)  0.1444 ( 15)
          -0.4157 ( 16)  0.7361 ( 19) -0.3205 ( 20)

 THE DETERMINANT OF THE G MATRIX IS 10**(    -7)


                     --------------------
                     INTERNAL COORDINATES
                     --------------------

                 - - ATOMS - -         COORDINATE      COORDINATE
 NO.   TYPE    I  J  K  L  M  N        (BOHR,RAD)       (ANG,DEG)
 ----------------------------------------------------------------
   1 STRETCH   1  6                     6.9307556       3.6675982
   2 STRETCH   1  3                     2.0963213       1.1093255
   3 STRETCH   1  4                     2.0963989       1.1093666
   4 STRETCH   1  5                     2.0967415       1.1095479
   5 STRETCH   1  2                     3.6532770       1.9332311
   6 STRETCH   1  2                     3.6532770       1.9332311
   7 BEND      2  1  5                  1.9109773     109.4909312
   8 BEND      2  1  6                  3.1286574     179.2588636
   9 BEND      2  1  5                  1.9109773     109.4909312
  10 BEND      2  1  3                  1.9111821     109.5026683
  11 BEND      2  1  3                  1.9111821     109.5026683
  12 BEND      2  1  4                  1.9111276     109.4995439
  13 BEND      2  1  6                  3.1286574     179.2588636
  14 BEND      2  1  4                  1.9111276     109.4995439
  15 BEND      3  1  5                  1.9101314     109.4424677
  16 BEND      3  1  6                  1.2411222      71.1110617
  17 BEND      3  1  4                  1.9102798     109.4509696
  18 BEND      4  1  5                  1.9101006     109.4407029
  19 BEND      4  1  6                  1.2314323      70.5558749
  20 BEND      5  1  6                  1.2189786      69.8423309

     ------------------------------------------
     THE POINT GROUP IS C1 , NAXIS= 0, ORDER= 1
     ------------------------------------------

     DIMENSIONS OF THE SYMMETRY SUBSPACES ARE
 A   =   15

 ..... DONE SETTING UP THE RUN .....
 STEP CPU TIME =     0.70 TOTAL CPU TIME =          0.7 (      0.0 MIN)
 TOTAL WALL CLOCK TIME=          0.7 SECONDS, CPU UTILIZATION IS   100.00%

     ---------------------------
     POTENTIAL SURFACE MAP INPUT
     ---------------------------
 JOB 1 IS RUNTYP=ENERGY   SCFTYP=RHF       CITYP=NONE    
          MPLEVL=       0  CCTYP=NONE     DFTTYP=NONE    
 COORD 1 LYING ALONG ATOM PAIR    1    6
 HAS ORIGIN= 4.000, DISPLACEMENT=-0.100  AND 25 STEPS.
 GROUP 1 CONTAINS    1 ATOMS:
     6

 ATOM      ATOMIC                      COORDINATES (BOHR)
           CHARGE         X                   Y                   Z
 C           6.0    -2.9226124181        2.0636185731        0.0008881712
 BR         35.0     0.7306247586        2.0802859563        0.0045542396
 H           1.0    -3.6298423690        3.8582157546       -0.8199710033
 H           1.0    -3.6234928897        1.8713767484        1.9672803423
 H           1.0    -3.6137041091        0.4509075179       -1.1471014691
 CL         17.0   -17.4100272081        1.8127477487       -0.0450587215

          INTERNUCLEAR DISTANCES (ANGS.)
          ------------------------------

                1 C          2 BR         3 H          4 H          5 H     

   1 C       0.0000000    1.9332311 *  1.1093255 *  1.1093666 *  1.1095479 *
   2 BR      1.9332311 *  0.0000000    2.5298076 *  2.5297926 *  2.5297981 *
   3 H       1.1093255 *  2.5298076 *  0.0000000    1.8113282 *  1.8113811 *
   4 H       1.1093666 *  2.5297926 *  1.8113282 *  0.0000000    1.8113949 *
   5 H       1.1095479 *  2.5297981 *  1.8113811 *  1.8113949 *  0.0000000  
   6 CL      7.6675982    9.6007001    7.3834530    7.3728934    7.3593249  

                6 CL    

   1 C       7.6675982  
   2 BR      9.6007001  
   3 H       7.3834530  
   4 H       7.3728934  
   5 H       7.3593249  
   6 CL      0.0000000  

  * ... LESS THAN  3.000


          ********************
          1 ELECTRON INTEGRALS
          ********************

          **************************
          1 AND 2 ELECTRON INTEGRALS
          **************************

 MOPAC ONE- AND TWO-ELECTRON INTEGRALS REQUIRE       633 WORDS.
 ...... END OF ONE- AND TWO-ELECTRON INTEGRALS......
 STEP CPU TIME =     0.14 TOTAL CPU TIME =          0.8 (      0.0 MIN)
 TOTAL WALL CLOCK TIME=          0.8 SECONDS, CPU UTILIZATION IS   100.00%
 ...... END OF ONE-ELECTRON INTEGRALS ......
 STEP CPU TIME =     0.04 TOTAL CPU TIME =          0.9 (      0.0 MIN)
 TOTAL WALL CLOCK TIME=          0.9 SECONDS, CPU UTILIZATION IS   100.00%

          -------------
          GUESS OPTIONS
          -------------
          GUESS =HUCKEL            NORB  =       0          NORDER=       0
          MIX   =       F          PRTMO =       F          PUNMO =       F
          TOLZ  = 1.0E-08          TOLE  = 1.0E-05
          SYMDEN=       F          PURIFY=       F

 INITIAL GUESS ORBITALS GENERATED BY HUCKEL   ROUTINE.

 SYMMETRIES FOR INITIAL GUESS ORBITALS FOLLOW.   BOTH SET(S).
    11 ORBITALS ARE OCCUPIED (    0 CORE ORBITALS).
     1=A        2=A        3=A        4=A        5=A        6=A        7=A   
     8=A        9=A       10=A       11=A       12=A       13=A       14=A   
    15=A   
 ...... END OF INITIAL ORBITAL SELECTION ......
 STEP CPU TIME =     0.18 TOTAL CPU TIME =          1.1 (      0.0 MIN)
 TOTAL WALL CLOCK TIME=          1.1 SECONDS, CPU UTILIZATION IS   100.00%

          --------------------------
               R-PM3 SCF CALCULATION
          --------------------------

     NUCLEAR ENERGY =        22.1631266966
     MAXIT =   30     NPUNCH=    2
     EXTRAP=T  DAMP=F  SHIFT=F  RSTRCT=F  DIIS=F  DEM=F  SOSCF=F
     DENSITY MATRIX CONV=  1.00E-05
     MEMORY REQUIRED FOR RHF ITERS=      2274 WORDS.

 ITER EX DEM     TOTAL ENERGY        E CHANGE  DENSITY CHANGE    DIIS ERROR
   1  0  0      -30.6799953281   -30.6799953281   0.273641417   0.000000000
   2  1  0      -30.7553203821    -0.0753250541   0.063533764   0.000000000
   3  2  0      -30.7624957949    -0.0071754128   0.031121122   0.000000000
   4  3  0      -30.7638140143    -0.0013182193   0.016842079   0.000000000
   5  0  0      -30.7641725191    -0.0003585048   0.020713877   0.000000000
   6  1  0      -30.7643325892    -0.0001600701   0.000181386   0.000000000
   7  2  0      -30.7643326554    -0.0000000662   0.000098403   0.000000000
   8  3  0      -30.7643326721    -0.0000000167   0.000053508   0.000000000
   9  4  0      -30.7643326768    -0.0000000047   0.000029302   0.000000000
  10  5  0      -30.7643326782    -0.0000000014   0.000016313   0.000000000
  11  6  0      -30.7643326786    -0.0000000004   0.000009921   0.000000000
  12  7  0      -30.7643326788    -0.0000000001   0.000005905   0.000000000

          -----------------
          DENSITY CONVERGED
          -----------------
     TIME TO FORM FOCK OPERATORS=       0.2 SECONDS (       0.0 SEC/ITER)
     TIME TO SOLVE SCF EQUATIONS=       0.9 SECONDS (       0.1 SEC/ITER)

 FINAL R-PM3 ENERGY IS      -30.7643326788 AFTER  12 ITERATIONS

 HEAT OF FORMATION IS       -54.39345 KCAL/MOL
 

          ------------
          EIGENVECTORS
          ------------

                      1          2          3          4          5
                   -1.7216    -1.0074    -0.6926    -0.4766    -0.4765
                     A          A          A          A          A   
    1  C  1  S    0.000007   0.761102  -0.090073  -0.000083   0.000128
    2  C  1  X   -0.000001  -0.023029   0.128907  -0.001950   0.003114
    3  C  1  Y   -0.000000  -0.000045   0.000560   0.485650  -0.487898
    4  C  1  Z   -0.000000  -0.000010   0.000122  -0.487875  -0.485701
    5  BR 2  S    0.000001   0.160548   0.977377   0.000033  -0.000060
    6  BR 2  X   -0.000001  -0.215045   0.083142  -0.000524   0.000782
    7  BR 2  Y   -0.000000  -0.000974   0.000396   0.224756  -0.225936
    8  BR 2  Z   -0.000000  -0.000215   0.000086  -0.225782  -0.224914
    9  H  3  S    0.000009   0.340754  -0.066093   0.498040  -0.187337
   10  H  4  S    0.000010   0.340691  -0.066066  -0.411166  -0.337594
   11  H  5  S    0.000010   0.340571  -0.066016  -0.086738   0.524729
   12  CL 6  S    1.000000  -0.000016   0.000002   0.000000  -0.000000
   13  CL 6  X    0.000212   0.000009  -0.000003  -0.000000   0.000000
   14  CL 6  Y    0.000005   0.000000  -0.000000   0.000002  -0.000002
   15  CL 6  Z    0.000001   0.000000  -0.000000  -0.000002  -0.000002

                      6          7          8          9         10
                   -0.4407    -0.3474    -0.3474    -0.1308    -0.1307
                     A          A          A          A          A   
    1  C  1  S   -0.036093   0.000023   0.000036  -0.000031   0.000000
    2  C  1  X   -0.621221   0.000470   0.000733   0.000013  -0.000000
    3  C  1  Y   -0.003347  -0.147254  -0.146625   0.000001  -0.000003
    4  C  1  Z   -0.000760   0.146478  -0.147413   0.000000  -0.000004
    5  BR 2  S    0.048670  -0.000012  -0.000018   0.000002  -0.000000
    6  BR 2  X    0.731085  -0.002345  -0.003634  -0.000014   0.000000
    7  BR 2  Y    0.002978   0.671646   0.668026  -0.000000   0.000000
    8  BR 2  Z    0.000639  -0.668087   0.671598  -0.000000   0.000001
    9  H  3  S    0.158825  -0.186598  -0.069147   0.000012   0.000000
   10  H  4  S    0.159016   0.153193  -0.127063   0.000012   0.000000
   11  H  5  S    0.159361   0.033441   0.196286   0.000012  -0.000001
   12  CL 6  S   -0.000004  -0.000000  -0.000000  -0.000212  -0.000000
   13  CL 6  X    0.000012   0.000000   0.000000   0.999798  -0.015396
   14  CL 6  Y    0.000000  -0.000001  -0.000001   0.019767   0.639673
   15  CL 6  Z    0.000000   0.000001  -0.000001   0.003576   0.768493

                     11         12         13         14         15
                   -0.1307     0.0577     0.1933     0.2013     0.2014
                     A          A          A          A          A   
    1  C  1  S    0.000000   0.335381   0.546643  -0.002330  -0.001694
    2  C  1  X   -0.000000   0.663955  -0.395076  -0.000741  -0.001183
    3  C  1  Y   -0.000003   0.003160   0.001854   0.587085   0.371784
    4  C  1  Z    0.000003   0.000699  -0.000169  -0.371885   0.587015
    5  BR 2  S   -0.000000  -0.127409   0.018895  -0.000070  -0.000048
    6  BR 2  X    0.000000   0.641333  -0.032093   0.000204   0.000167
    7  BR 2  Y    0.000001   0.002924  -0.000331  -0.027400  -0.017341
    8  BR 2  Z   -0.000000   0.000640  -0.000046   0.017360  -0.027386
    9  H  3  S    0.000000  -0.079897  -0.428403  -0.579191  -0.078611
   10  H  4  S   -0.000000  -0.079846  -0.425621   0.361558  -0.461937
   11  H  5  S   -0.000000  -0.079769  -0.423112   0.223134   0.544583
   12  CL 6  S   -0.000000   0.000002   0.000008  -0.000000  -0.000000
   13  CL 6  X   -0.012903   0.000014   0.000037  -0.000001  -0.000001
   14  CL 6  Y    0.768393   0.000000   0.000001   0.000003   0.000002
   15  CL 6  Z   -0.639848   0.000000   0.000000  -0.000002   0.000003
 ...... END OF RHF CALCULATION ......
 STEP CPU TIME =     1.06 TOTAL CPU TIME =          2.1 (      0.0 MIN)
 TOTAL WALL CLOCK TIME=          2.1 SECONDS, CPU UTILIZATION IS   100.00%

     ----------------------------------------------------------------
     PROPERTY VALUES FOR THE RHF   SELF-CONSISTENT FIELD WAVEFUNCTION
     ----------------------------------------------------------------

                    -------------
                    MOPAC CHARGES
                    -------------
         ATOM NO.   TYPE          CHARGE        ATOM  ELECTRON DENSITY
           1         C             -0.0520          4.0520
           2         BR            -0.1379          7.1379
           3         H              0.0631          0.9369
           4         H              0.0633          0.9367
           5         H              0.0635          0.9365
           6         CL            -1.0000          8.0000

          ---------------------
          ELECTROSTATIC MOMENTS
          ---------------------

 POINT   1           X           Y           Z (ANGS)      CHARGE
                -2.454963    1.061287   -0.004962       -1.00 (A.U.)
         DX          DY          DZ         /D/  (DEBYE)
    30.666512    0.480437    0.088624   30.670403
 ...... END OF PROPERTY EVALUATION ......
 STEP CPU TIME =     0.02 TOTAL CPU TIME =          2.1 (      0.0 MIN)
 TOTAL WALL CLOCK TIME=          2.1 SECONDS, CPU UTILIZATION IS   100.00%
 ---- SURFACE MAPPING GEOMETRY ----
 COORD 1= 4.000 COORD 2= 0.000
 HAS ENERGY VALUE     -30.764333
 C     -1.54658   1.09202   0.00047
 BR     0.38663   1.10084   0.00241
 H     -1.92083   2.04168  -0.43391
 H     -1.91747   0.99029   1.04104
 H     -1.91229   0.23861  -0.60702
 CL    -9.21299   0.95926  -0.02384
 ----------------------------------

 ATOM      ATOMIC                      COORDINATES (BOHR)
           CHARGE         X                   Y                   Z
 C           6.0    -2.9226124181        2.0636185731        0.0008881712
 BR         35.0     0.7306247586        2.0802859563        0.0045542396
 H           1.0    -3.6298423690        3.8582157546       -0.8199710033
 H           1.0    -3.6234928897        1.8713767484        1.9672803423
 H           1.0    -3.6137041091        0.4509075179       -1.1471014691
 CL         17.0   -17.2210838856        1.8160195793       -0.0444594870

          INTERNUCLEAR DISTANCES (ANGS.)
          ------------------------------

                1 C          2 BR         3 H          4 H          5 H     

   1 C       0.0000000    1.9332311 *  1.1093255 *  1.1093666 *  1.1095479 *
   2 BR      1.9332311 *  0.0000000    2.5298076 *  2.5297926 *  2.5297981 *
   3 H       1.1093255 *  2.5298076 *  0.0000000    1.8113282 *  1.8113811 *
   4 H       1.1093666 *  2.5297926 *  1.8113282 *  0.0000000    1.8113949 *
   5 H       1.1095479 *  2.5297981 *  1.8113811 *  1.8113949 *  0.0000000  
   6 CL      7.5675982    9.5007005    7.2844824    7.2739189    7.2603453  

                6 CL    

   1 C       7.5675982  
   2 BR      9.5007005  
   3 H       7.2844824  
   4 H       7.2739189  
   5 H       7.2603453  
   6 CL      0.0000000  

  * ... LESS THAN  3.000


          ********************
          1 ELECTRON INTEGRALS
          ********************

          **************************
          1 AND 2 ELECTRON INTEGRALS
          **************************

 MOPAC ONE- AND TWO-ELECTRON INTEGRALS REQUIRE       633 WORDS.
 ...... END OF ONE- AND TWO-ELECTRON INTEGRALS......
 STEP CPU TIME =     0.05 TOTAL CPU TIME =          2.2 (      0.0 MIN)
 TOTAL WALL CLOCK TIME=          2.2 SECONDS, CPU UTILIZATION IS   100.00%
 ...... END OF ONE-ELECTRON INTEGRALS ......
 STEP CPU TIME =     0.01 TOTAL CPU TIME =          2.2 (      0.0 MIN)
 TOTAL WALL CLOCK TIME=          2.2 SECONDS, CPU UTILIZATION IS   100.00%

          --------------------------
               R-PM3 SCF CALCULATION
          --------------------------

     NUCLEAR ENERGY =        22.2359617557
     MAXIT =   30     NPUNCH=    2
     EXTRAP=T  DAMP=F  SHIFT=F  RSTRCT=F  DIIS=F  DEM=F  SOSCF=F
     DENSITY MATRIX CONV=  1.00E-05
     MEMORY REQUIRED FOR RHF ITERS=      2274 WORDS.

 ITER EX DEM     TOTAL ENERGY        E CHANGE  DENSITY CHANGE    DIIS ERROR
   1  0  0      -30.7644027135   -30.7644027135   0.000458932   0.000000000
   2  1  0      -30.7644028147    -0.0000001012   0.000193800   0.000000000
   3  2  0      -30.7644028312    -0.0000000166   0.000087211   0.000000000
   4  3  0      -30.7644028348    -0.0000000036   0.000041328   0.000000000
   5  4  0      -30.7644028357    -0.0000000009   0.000020475   0.000000000
   6  5  0      -30.7644028360    -0.0000000003   0.000010513   0.000000000
   7  6  0      -30.7644028360    -0.0000000001   0.000005548   0.000000000

          -----------------
          DENSITY CONVERGED
          -----------------
     TIME TO FORM FOCK OPERATORS=       0.1 SECONDS (       0.0 SEC/ITER)
     TIME TO SOLVE SCF EQUATIONS=       0.4 SECONDS (       0.1 SEC/ITER)

 FINAL R-PM3 ENERGY IS      -30.7644028360 AFTER   7 ITERATIONS

 HEAT OF FORMATION IS       -54.43747 KCAL/MOL
 

          ------------
          EIGENVECTORS
          ------------

                      1          2          3          4          5
                   -1.7217    -1.0066    -0.6918    -0.4758    -0.4757
                     A          A          A          A          A   
    1  C  1  S    0.000009   0.761114  -0.090078  -0.000085   0.000131
    2  C  1  X   -0.000001  -0.022940   0.128867  -0.001958   0.003119
    3  C  1  Y   -0.000000  -0.000043   0.000559   0.486050  -0.487397
    4  C  1  Z   -0.000000  -0.000009   0.000122  -0.487373  -0.486102
    5  BR 2  S    0.000001   0.160554   0.977376   0.000034  -0.000061
    6  BR 2  X   -0.000002  -0.215138   0.083223  -0.000520   0.000774
    7  BR 2  Y   -0.000000  -0.000974   0.000396   0.225353  -0.226119
    8  BR 2  Z   -0.000000  -0.000215   0.000086  -0.225962  -0.225514
    9  H  3  S    0.000011   0.340728  -0.066088   0.498069  -0.186821
   10  H  4  S    0.000011   0.340664  -0.066060  -0.410731  -0.337876
   11  H  5  S    0.000012   0.340543  -0.066009  -0.087198   0.524490
   12  CL 6  S    1.000000  -0.000019   0.000003   0.000000  -0.000000
   13  CL 6  X    0.000220   0.000011  -0.000003  -0.000000   0.000000
   14  CL 6  Y    0.000005   0.000000  -0.000000   0.000002  -0.000002
   15  CL 6  Z    0.000001   0.000000  -0.000000  -0.000002  -0.000002

                      6          7          8          9         10
                   -0.4399    -0.3468    -0.3468    -0.1309    -0.1308
                     A          A          A          A          A   
    1  C  1  S   -0.035858   0.000024   0.000037  -0.000038   0.000000
    2  C  1  X   -0.620932   0.000470   0.000733   0.000016  -0.000000
    3  C  1  Y   -0.003355  -0.147684  -0.146820   0.000001  -0.000004
    4  C  1  Z   -0.000762   0.146670  -0.147847   0.000000  -0.000004
    5  BR 2  S    0.048551  -0.000012  -0.000018   0.000002  -0.000000
    6  BR 2  X    0.731326  -0.002346  -0.003630  -0.000017   0.000000
    7  BR 2  Y    0.002972   0.672051   0.667357  -0.000000   0.000001
    8  BR 2  Z    0.000638  -0.667419   0.672002  -0.000000   0.000001
    9  H  3  S    0.158855  -0.186913  -0.069093   0.000014   0.000000
   10  H  4  S    0.159051   0.153304  -0.127363   0.000014   0.000000
   11  H  5  S    0.159402   0.033645   0.196533   0.000014  -0.000001
   12  CL 6  S   -0.000005  -0.000000  -0.000000  -0.000221  -0.000000
   13  CL 6  X    0.000014   0.000000   0.000000   0.999799  -0.015386
   14  CL 6  Y    0.000000  -0.000001  -0.000001   0.019735   0.640580
   15  CL 6  Z    0.000000   0.000001  -0.000001   0.003570   0.767737

                     11         12         13         14         15
                   -0.1308     0.0584     0.1942     0.2022     0.2022
                     A          A          A          A          A   
    1  C  1  S    0.000000   0.335427   0.546613  -0.002403  -0.001792
    2  C  1  X   -0.000000   0.664196  -0.395144  -0.000669  -0.001134
    3  C  1  Y   -0.000004   0.003163   0.002002   0.583694   0.376972
    4  C  1  Z    0.000003   0.000699  -0.000146  -0.377076   0.583622
    5  BR 2  S   -0.000000  -0.127452   0.018901  -0.000072  -0.000052
    6  BR 2  X    0.000000   0.641015  -0.032102   0.000207   0.000172
    7  BR 2  Y    0.000001   0.002923  -0.000339  -0.027217  -0.017567
    8  BR 2  Z   -0.000001   0.000640  -0.000047   0.017586  -0.027202
    9  H  3  S    0.000001  -0.079996  -0.428498  -0.578445  -0.083721
   10  H  4  S   -0.000000  -0.079943  -0.425619   0.365762  -0.458671
   11  H  5  S   -0.000000  -0.079865  -0.422991   0.218353   0.546659
   12  CL 6  S   -0.000000   0.000002   0.000009  -0.000000  -0.000000
   13  CL 6  X   -0.012864   0.000016   0.000044  -0.000001  -0.000001
   14  CL 6  Y    0.767638   0.000000   0.000001   0.000004   0.000002
   15  CL 6  Z   -0.640755   0.000000   0.000000  -0.000002   0.000004
 ...... END OF RHF CALCULATION ......
 STEP CPU TIME =     0.49 TOTAL CPU TIME =          2.7 (      0.0 MIN)
 TOTAL WALL CLOCK TIME=          2.7 SECONDS, CPU UTILIZATION IS   100.00%

     ----------------------------------------------------------------
     PROPERTY VALUES FOR THE RHF   SELF-CONSISTENT FIELD WAVEFUNCTION
     ----------------------------------------------------------------

                    -------------
                    MOPAC CHARGES
                    -------------
         ATOM NO.   TYPE          CHARGE        ATOM  ELECTRON DENSITY
           1         C             -0.0516          4.0516
           2         BR            -0.1387          7.1387
           3         H              0.0632          0.9368
           4         H              0.0634          0.9366
           5         H              0.0636          0.9364
           6         CL            -1.0000          8.0000

          ---------------------
          ELECTROSTATIC MOMENTS
          ---------------------

 POINT   1           X           Y           Z (ANGS)      CHARGE
                -2.427778    1.061758   -0.004876       -1.00 (A.U.)
         DX          DY          DZ         /D/  (DEBYE)
    30.309486    0.474314    0.087501   30.313324
 ...... END OF PROPERTY EVALUATION ......
 STEP CPU TIME =     0.03 TOTAL CPU TIME =          2.7 (      0.0 MIN)
 TOTAL WALL CLOCK TIME=          2.7 SECONDS, CPU UTILIZATION IS   100.00%
 ---- SURFACE MAPPING GEOMETRY ----
 COORD 1= 3.900 COORD 2= 0.000
 HAS ENERGY VALUE     -30.764403
 C     -1.54658   1.09202   0.00047
 BR     0.38663   1.10084   0.00241
 H     -1.92083   2.04168  -0.43391
 H     -1.91747   0.99029   1.04104
 H     -1.91229   0.23861  -0.60702
 CL    -9.11301   0.96100  -0.02353
 ----------------------------------

 ATOM      ATOMIC                      COORDINATES (BOHR)
           CHARGE         X                   Y                   Z
 C           6.0    -2.9226124181        2.0636185731        0.0008881712
 BR         35.0     0.7306247586        2.0802859563        0.0045542396
 H           1.0    -3.6298423690        3.8582157546       -0.8199710033
 H           1.0    -3.6234928897        1.8713767484        1.9672803423
 H           1.0    -3.6137041091        0.4509075179       -1.1471014691
 CL         17.0   -17.0321405630        1.8192914099       -0.0438602525

          INTERNUCLEAR DISTANCES (ANGS.)
          ------------------------------

                1 C          2 BR         3 H          4 H          5 H     

   1 C       0.0000000    1.9332311 *  1.1093255 *  1.1093666 *  1.1095479 *
   2 BR      1.9332311 *  0.0000000    2.5298076 *  2.5297926 *  2.5297981 *
   3 H       1.1093255 *  2.5298076 *  0.0000000    1.8113282 *  1.8113811 *
   4 H       1.1093666 *  2.5297926 *  1.8113282 *  0.0000000    1.8113949 *
   5 H       1.1095479 *  2.5297981 *  1.8113811 *  1.8113949 *  0.0000000  
   6 CL      7.4675982    9.4007008    7.1855404    7.1749729    7.1613941  

                6 CL    

   1 C       7.4675982  
   2 BR      9.4007008  
   3 H       7.1855404  
   4 H       7.1749729  
   5 H       7.1613941  
   6 CL      0.0000000  

  * ... LESS THAN  3.000


          ********************
          1 ELECTRON INTEGRALS
          ********************

          **************************
          1 AND 2 ELECTRON INTEGRALS
          **************************

 MOPAC ONE- AND TWO-ELECTRON INTEGRALS REQUIRE       633 WORDS.
 ...... END OF ONE- AND TWO-ELECTRON INTEGRALS......
 STEP CPU TIME =     0.05 TOTAL CPU TIME =          2.8 (      0.0 MIN)
 TOTAL WALL CLOCK TIME=          2.8 SECONDS, CPU UTILIZATION IS   100.00%
 ...... END OF ONE-ELECTRON INTEGRALS ......
 STEP CPU TIME =     0.01 TOTAL CPU TIME =          2.8 (      0.0 MIN)
 TOTAL WALL CLOCK TIME=          2.8 SECONDS, CPU UTILIZATION IS   100.00%

          --------------------------
               R-PM3 SCF CALCULATION
          --------------------------

     NUCLEAR ENERGY =        22.3105609456
     MAXIT =   30     NPUNCH=    2
     EXTRAP=T  DAMP=F  SHIFT=F  RSTRCT=F  DIIS=F  DEM=F  SOSCF=F
     DENSITY MATRIX CONV=  1.00E-05
     MEMORY REQUIRED FOR RHF ITERS=      2274 WORDS.

 ITER EX DEM     TOTAL ENERGY        E CHANGE  DENSITY CHANGE    DIIS ERROR
   1  0  0      -30.7644756532   -30.7644756532   0.000474378   0.000000000
   2  1  0      -30.7644757616    -0.0000001085   0.000199925   0.000000000
   3  2  0      -30.7644757793    -0.0000000177   0.000089861   0.000000000
   4  3  0      -30.7644757831    -0.0000000038   0.000042534   0.000000000
   5  4  0      -30.7644757841    -0.0000000010   0.000021049   0.000000000
   6  5  0      -30.7644757844    -0.0000000003   0.000010798   0.000000000
   7  6  0      -30.7644757844    -0.0000000001   0.000005694   0.000000000

          -----------------
          DENSITY CONVERGED
          -----------------
     TIME TO FORM FOCK OPERATORS=       0.1 SECONDS (       0.0 SEC/ITER)
     TIME TO SOLVE SCF EQUATIONS=       0.4 SECONDS (       0.1 SEC/ITER)

 FINAL R-PM3 ENERGY IS      -30.7644757844 AFTER   7 ITERATIONS

 HEAT OF FORMATION IS       -54.48325 KCAL/MOL
 

          ------------
          EIGENVECTORS
          ------------

                      1          2          3          4          5
                   -1.7217    -1.0057    -0.6909    -0.4749    -0.4748
                     A          A          A          A          A   
    1  C  1  S    0.000011   0.761126  -0.090084  -0.000088   0.000134
    2  C  1  X   -0.000002  -0.022848   0.128826  -0.001965   0.003123
    3  C  1  Y   -0.000000  -0.000041   0.000558   0.486451  -0.486891
    4  C  1  Z   -0.000000  -0.000009   0.000122  -0.486866  -0.486504
    5  BR 2  S    0.000001   0.160562   0.977375   0.000035  -0.000062
    6  BR 2  X   -0.000002  -0.215235   0.083305  -0.000516   0.000767
    7  BR 2  Y   -0.000000  -0.000975   0.000397   0.225967  -0.226315
    8  BR 2  Z   -0.000000  -0.000215   0.000086  -0.226155  -0.226131
    9  H  3  S    0.000014   0.340701  -0.066082   0.498092  -0.186300
   10  H  4  S    0.000014   0.340636  -0.066054  -0.410288  -0.338155
   11  H  5  S    0.000014   0.340513  -0.066003  -0.087659   0.524242
   12  CL 6  S    1.000000  -0.000023   0.000003   0.000000  -0.000000
   13  CL 6  X    0.000229   0.000013  -0.000004  -0.000000   0.000001
   14  CL 6  Y    0.000005   0.000000  -0.000000   0.000003  -0.000003
   15  CL 6  Z    0.000001   0.000000  -0.000000  -0.000003  -0.000003

                      6          7          8          9         10
                   -0.4392    -0.3462    -0.3462    -0.1309    -0.1309
                     A          A          A          A          A   
    1  C  1  S   -0.035616   0.000025   0.000038  -0.000045   0.000000
    2  C  1  X   -0.620634   0.000470   0.000732   0.000019  -0.000000
    3  C  1  Y   -0.003364  -0.148127  -0.147027   0.000001  -0.000004
    4  C  1  Z   -0.000763   0.146873  -0.148293   0.000000  -0.000005
    5  BR 2  S    0.048429  -0.000013  -0.000019   0.000002  -0.000000
    6  BR 2  X    0.731576  -0.002347  -0.003626  -0.000020   0.000000
    7  BR 2  Y    0.002965   0.672453   0.666679  -0.000000   0.000001
    8  BR 2  Z    0.000637  -0.666742   0.672403  -0.000000   0.000001
    9  H  3  S    0.158886  -0.187236  -0.069042   0.000017   0.000000
   10  H  4  S    0.159086   0.153422  -0.127670   0.000017   0.000000
   11  H  5  S    0.159444   0.033852   0.196789   0.000017  -0.000001
   12  CL 6  S   -0.000006  -0.000000  -0.000000  -0.000229  -0.000000
   13  CL 6  X    0.000017   0.000000   0.000000   0.999800  -0.015375
   14  CL 6  Y    0.000000  -0.000002  -0.000002   0.019702   0.641466
   15  CL 6  Z    0.000000   0.000002  -0.000002   0.003565   0.766997

                     11         12         13         14         15
                   -0.1309     0.0591     0.1951     0.2031     0.2031
                     A          A          A          A          A   
    1  C  1  S    0.000000   0.335473   0.546582  -0.002478  -0.001895
    2  C  1  X   -0.000000   0.664444  -0.395213  -0.000595  -0.001081
    3  C  1  Y   -0.000005   0.003166   0.002156   0.580469   0.381803
    4  C  1  Z    0.000004   0.000700  -0.000122  -0.381908   0.580394
    5  BR 2  S   -0.000000  -0.127496   0.018908  -0.000075  -0.000055
    6  BR 2  X    0.000000   0.640687  -0.032112   0.000210   0.000178
    7  BR 2  Y    0.000001   0.002922  -0.000346  -0.027041  -0.017775
    8  BR 2  Z   -0.000001   0.000640  -0.000048   0.017795  -0.027025
    9  H  3  S    0.000001  -0.080097  -0.428597  -0.577703  -0.088498
   10  H  4  S   -0.000001  -0.080044  -0.425618   0.369687  -0.455573
   11  H  5  S   -0.000000  -0.079965  -0.422865   0.213864   0.548579
   12  CL 6  S   -0.000000   0.000002   0.000011  -0.000000  -0.000000
   13  CL 6  X   -0.012825   0.000019   0.000053  -0.000001  -0.000001
   14  CL 6  Y    0.766898   0.000000   0.000001   0.000004   0.000003
   15  CL 6  Z   -0.641641   0.000000   0.000000  -0.000003   0.000004
 ...... END OF RHF CALCULATION ......
 STEP CPU TIME =     0.49 TOTAL CPU TIME =          3.3 (      0.1 MIN)
 TOTAL WALL CLOCK TIME=          3.3 SECONDS, CPU UTILIZATION IS   100.00%

     ----------------------------------------------------------------
     PROPERTY VALUES FOR THE RHF   SELF-CONSISTENT FIELD WAVEFUNCTION
     ----------------------------------------------------------------

                    -------------
                    MOPAC CHARGES
                    -------------
         ATOM NO.   TYPE          CHARGE        ATOM  ELECTRON DENSITY
           1         C             -0.0511          4.0511
           2         BR            -0.1395          7.1395
           3         H              0.0634          0.9366
           4         H              0.0635          0.9365
           5         H              0.0638          0.9362
           6         CL            -1.0000          8.0000

          ---------------------
          ELECTROSTATIC MOMENTS
          ---------------------

 POINT   1           X           Y           Z (ANGS)      CHARGE
                -2.400593    1.062228   -0.004790       -1.00 (A.U.)
         DX          DY          DZ         /D/  (DEBYE)
    29.952208    0.468188    0.086378   29.955991
 ...... END OF PROPERTY EVALUATION ......
 STEP CPU TIME =     0.02 TOTAL CPU TIME =          3.3 (      0.1 MIN)
 TOTAL WALL CLOCK TIME=          3.3 SECONDS, CPU UTILIZATION IS   100.00%
 ---- SURFACE MAPPING GEOMETRY ----
 COORD 1= 3.800 COORD 2= 0.000
 HAS ENERGY VALUE     -30.764476
 C     -1.54658   1.09202   0.00047
 BR     0.38663   1.10084   0.00241
 H     -1.92083   2.04168  -0.43391
 H     -1.91747   0.99029   1.04104
 H     -1.91229   0.23861  -0.60702
 CL    -9.01302   0.96273  -0.02321
 ----------------------------------

 ATOM      ATOMIC                      COORDINATES (BOHR)
           CHARGE         X                   Y                   Z
 C           6.0    -2.9226124181        2.0636185731        0.0008881712
 BR         35.0     0.7306247586        2.0802859563        0.0045542396
 H           1.0    -3.6298423690        3.8582157546       -0.8199710033
 H           1.0    -3.6234928897        1.8713767484        1.9672803423
 H           1.0    -3.6137041091        0.4509075179       -1.1471014691
 CL         17.0   -16.8431972405        1.8225632405       -0.0432610180

          INTERNUCLEAR DISTANCES (ANGS.)
          ------------------------------

                1 C          2 BR         3 H          4 H          5 H     

   1 C       0.0000000    1.9332311 *  1.1093255 *  1.1093666 *  1.1095479 *
   2 BR      1.9332311 *  0.0000000    2.5298076 *  2.5297926 *  2.5297981 *
   3 H       1.1093255 *  2.5298076 *  0.0000000    1.8113282 *  1.8113811 *
   4 H       1.1093666 *  2.5297926 *  1.8113282 *  0.0000000    1.8113949 *
   5 H       1.1095479 *  2.5297981 *  1.8113811 *  1.8113949 *  0.0000000  
   6 CL      7.3675982    9.3007012    7.0866280    7.0760564    7.0624724  

                6 CL    

   1 C       7.3675982  
   2 BR      9.3007012  
   3 H       7.0866280  
   4 H       7.0760564  
   5 H       7.0624724  
   6 CL      0.0000000  

  * ... LESS THAN  3.000


          ********************
          1 ELECTRON INTEGRALS
          ********************

          **************************
          1 AND 2 ELECTRON INTEGRALS
          **************************

 MOPAC ONE- AND TWO-ELECTRON INTEGRALS REQUIRE       633 WORDS.
 ...... END OF ONE- AND TWO-ELECTRON INTEGRALS......
 STEP CPU TIME =     0.05 TOTAL CPU TIME =          3.3 (      0.1 MIN)
 TOTAL WALL CLOCK TIME=          3.3 SECONDS, CPU UTILIZATION IS   100.00%
 ...... END OF ONE-ELECTRON INTEGRALS ......
 STEP CPU TIME =     0.01 TOTAL CPU TIME =          3.3 (      0.1 MIN)
 TOTAL WALL CLOCK TIME=          3.3 SECONDS, CPU UTILIZATION IS   100.00%

          --------------------------
               R-PM3 SCF CALCULATION
          --------------------------

     NUCLEAR ENERGY =        22.3869890607
     MAXIT =   30     NPUNCH=    2
     EXTRAP=T  DAMP=F  SHIFT=F  RSTRCT=F  DIIS=F  DEM=F  SOSCF=F
     DENSITY MATRIX CONV=  1.00E-05
     MEMORY REQUIRED FOR RHF ITERS=      2274 WORDS.

 ITER EX DEM     TOTAL ENERGY        E CHANGE  DENSITY CHANGE    DIIS ERROR
   1  0  0      -30.7645515324   -30.7645515324   0.000491230   0.000000000
   2  1  0      -30.7645516487    -0.0000001163   0.000206768   0.000000000
   3  2  0      -30.7645516677    -0.0000000189   0.000092927   0.000000000
   4  3  0      -30.7645516717    -0.0000000040   0.000043982   0.000000000
   5  4  0      -30.7645516727    -0.0000000010   0.000021765   0.000000000
   6  5  0      -30.7645516730    -0.0000000003   0.000011164   0.000000000
   7  6  0      -30.7645516731    -0.0000000001   0.000005887   0.000000000

          -----------------
          DENSITY CONVERGED
          -----------------
     TIME TO FORM FOCK OPERATORS=       0.1 SECONDS (       0.0 SEC/ITER)
     TIME TO SOLVE SCF EQUATIONS=       0.4 SECONDS (       0.1 SEC/ITER)

 FINAL R-PM3 ENERGY IS      -30.7645516731 AFTER   7 ITERATIONS

 HEAT OF FORMATION IS       -54.53087 KCAL/MOL
 

          ------------
          EIGENVECTORS
          ------------

                      1          2          3          4          5
                   -1.7218    -1.0049    -0.6901    -0.4741    -0.4740
                     A          A          A          A          A   
    1  C  1  S    0.000013   0.761138  -0.090091  -0.000090   0.000137
    2  C  1  X   -0.000002  -0.022752   0.128784  -0.001973   0.003128
    3  C  1  Y   -0.000000  -0.000039   0.000557   0.486852  -0.486379
    4  C  1  Z   -0.000000  -0.000009   0.000122  -0.486353  -0.486907
    5  BR 2  S    0.000001   0.160569   0.977374   0.000035  -0.000062
    6  BR 2  X   -0.000002  -0.215335   0.083391  -0.000511   0.000759
    7  BR 2  Y   -0.000000  -0.000975   0.000398   0.226598  -0.226523
    8  BR 2  Z   -0.000000  -0.000215   0.000086  -0.226361  -0.226765
    9  H  3  S    0.000016   0.340673  -0.066077   0.498110  -0.185774
   10  H  4  S    0.000016   0.340606  -0.066048  -0.409838  -0.338432
   11  H  5  S    0.000017   0.340481  -0.065996  -0.088123   0.523988
   12  CL 6  S    1.000000  -0.000027   0.000004   0.000000  -0.000000
   13  CL 6  X    0.000239   0.000015  -0.000005  -0.000000   0.000001
   14  CL 6  Y    0.000005   0.000000  -0.000000   0.000003  -0.000003
   15  CL 6  Z    0.000001   0.000000  -0.000000  -0.000003  -0.000003

                      6          7          8          9         10
                   -0.4385    -0.3455    -0.3455    -0.1310    -0.1310
                     A          A          A          A          A   
    1  C  1  S   -0.035364   0.000025   0.000039  -0.000054   0.000000
    2  C  1  X   -0.620325   0.000471   0.000731   0.000023  -0.000000
    3  C  1  Y   -0.003373  -0.148584  -0.147243   0.000001  -0.000005
    4  C  1  Z   -0.000765   0.147087  -0.148753   0.000000  -0.000006
    5  BR 2  S    0.048303  -0.000013  -0.000019   0.000003  -0.000000
    6  BR 2  X    0.731834  -0.002349  -0.003622  -0.000024   0.000000
    7  BR 2  Y    0.002958   0.672854   0.665992  -0.000000   0.000001
    8  BR 2  Z    0.000636  -0.666056   0.672802  -0.000000   0.000001
    9  H  3  S    0.158918  -0.187571  -0.068992   0.000020   0.000000
   10  H  4  S    0.159123   0.153546  -0.127985   0.000020   0.000001
   11  H  5  S    0.159488   0.034062   0.197055   0.000020  -0.000001
   12  CL 6  S   -0.000007  -0.000000  -0.000000  -0.000239  -0.000000
   13  CL 6  X    0.000020   0.000000   0.000000   0.999800  -0.015364
   14  CL 6  Y    0.000000  -0.000002  -0.000002   0.019668   0.642331
   15  CL 6  Z    0.000000   0.000002  -0.000002   0.003559   0.766273

                     11         12         13         14         15
                   -0.1310     0.0599     0.1960     0.2040     0.2040
                     A          A          A          A          A   
    1  C  1  S    0.000000   0.335522   0.546549  -0.002558  -0.002001
    2  C  1  X   -0.000000   0.664700  -0.395287  -0.000519  -0.001024
    3  C  1  Y   -0.000006   0.003169   0.002319   0.577397   0.386313
    4  C  1  Z    0.000005   0.000700  -0.000096  -0.386421   0.577320
    5  BR 2  S   -0.000000  -0.127540   0.018915  -0.000078  -0.000058
    6  BR 2  X    0.000000   0.640348  -0.032123   0.000213   0.000184
    7  BR 2  Y    0.000001   0.002920  -0.000354  -0.026871  -0.017967
    8  BR 2  Z   -0.000001   0.000640  -0.000049   0.017987  -0.026855
    9  H  3  S    0.000001  -0.080203  -0.428702  -0.576967  -0.092975
   10  H  4  S   -0.000001  -0.080149  -0.425616   0.373361  -0.452629
   11  H  5  S   -0.000000  -0.080069  -0.422733   0.209640   0.550362
   12  CL 6  S   -0.000000   0.000003   0.000013  -0.000000  -0.000000
   13  CL 6  X   -0.012785   0.000023   0.000063  -0.000001  -0.000001
   14  CL 6  Y    0.766175   0.000000   0.000001   0.000005   0.000004
   15  CL 6  Z   -0.642505   0.000000   0.000000  -0.000003   0.000005
 ...... END OF RHF CALCULATION ......
 STEP CPU TIME =     0.48 TOTAL CPU TIME =          3.8 (      0.1 MIN)
 TOTAL WALL CLOCK TIME=          3.8 SECONDS, CPU UTILIZATION IS   100.00%

     ----------------------------------------------------------------
     PROPERTY VALUES FOR THE RHF   SELF-CONSISTENT FIELD WAVEFUNCTION
     ----------------------------------------------------------------

                    -------------
                    MOPAC CHARGES
                    -------------
         ATOM NO.   TYPE          CHARGE        ATOM  ELECTRON DENSITY
           1         C             -0.0507          4.0507
           2         BR            -0.1404          7.1404
           3         H              0.0635          0.9365
           4         H              0.0637          0.9363
           5         H              0.0639          0.9361
           6         CL            -1.0000          8.0000

          ---------------------
          ELECTROSTATIC MOMENTS
          ---------------------

 POINT   1           X           Y           Z (ANGS)      CHARGE
                -2.373407    1.062699   -0.004703       -1.00 (A.U.)
         DX          DY          DZ         /D/  (DEBYE)
    29.594663    0.462059    0.085255   29.598393
 ...... END OF PROPERTY EVALUATION ......
 STEP CPU TIME =     0.01 TOTAL CPU TIME =          3.8 (      0.1 MIN)
 TOTAL WALL CLOCK TIME=          3.8 SECONDS, CPU UTILIZATION IS   100.00%
 ---- SURFACE MAPPING GEOMETRY ----
 COORD 1= 3.700 COORD 2= 0.000
 HAS ENERGY VALUE     -30.764552
 C     -1.54658   1.09202   0.00047
 BR     0.38663   1.10084   0.00241
 H     -1.92083   2.04168  -0.43391
 H     -1.91747   0.99029   1.04104
 H     -1.91229   0.23861  -0.60702
 CL    -8.91304   0.96446  -0.02289
 ----------------------------------

 ATOM      ATOMIC                      COORDINATES (BOHR)
           CHARGE         X                   Y                   Z
 C           6.0    -2.9226124181        2.0636185731        0.0008881712
 BR         35.0     0.7306247586        2.0802859563        0.0045542396
 H           1.0    -3.6298423690        3.8582157546       -0.8199710033
 H           1.0    -3.6234928897        1.8713767484        1.9672803423
 H           1.0    -3.6137041091        0.4509075179       -1.1471014691
 CL         17.0   -16.6542539180        1.8258350711       -0.0426617836

          INTERNUCLEAR DISTANCES (ANGS.)
          ------------------------------

                1 C          2 BR         3 H          4 H          5 H     

   1 C       0.0000000    1.9332311 *  1.1093255 *  1.1093666 *  1.1095479 *
   2 BR      1.9332311 *  0.0000000    2.5298076 *  2.5297926 *  2.5297981 *
   3 H       1.1093255 *  2.5298076 *  0.0000000    1.8113282 *  1.8113811 *
   4 H       1.1093666 *  2.5297926 *  1.8113282 *  0.0000000    1.8113949 *
   5 H       1.1095479 *  2.5297981 *  1.8113811 *  1.8113949 *  0.0000000  
   6 CL      7.2675982    9.2007015    6.9877465    6.9771709    6.9635816  

                6 CL    

   1 C       7.2675982  
   2 BR      9.2007015  
   3 H       6.9877465  
   4 H       6.9771709  
   5 H       6.9635816  
   6 CL      0.0000000  

  * ... LESS THAN  3.000


          ********************
          1 ELECTRON INTEGRALS
          ********************

          **************************
          1 AND 2 ELECTRON INTEGRALS
          **************************

 MOPAC ONE- AND TWO-ELECTRON INTEGRALS REQUIRE       633 WORDS.
 ...... END OF ONE- AND TWO-ELECTRON INTEGRALS......
 STEP CPU TIME =     0.05 TOTAL CPU TIME =          3.9 (      0.1 MIN)
 TOTAL WALL CLOCK TIME=          3.9 SECONDS, CPU UTILIZATION IS   100.00%
 ...... END OF ONE-ELECTRON INTEGRALS ......
 STEP CPU TIME =     0.01 TOTAL CPU TIME =          3.9 (      0.1 MIN)
 TOTAL WALL CLOCK TIME=          3.9 SECONDS, CPU UTILIZATION IS   100.00%

          --------------------------
               R-PM3 SCF CALCULATION
          --------------------------

     NUCLEAR ENERGY =        22.4653140922
     MAXIT =   30     NPUNCH=    2
     EXTRAP=T  DAMP=F  SHIFT=F  RSTRCT=F  DIIS=F  DEM=F  SOSCF=F
     DENSITY MATRIX CONV=  1.00E-05
     MEMORY REQUIRED FOR RHF ITERS=      2274 WORDS.

 ITER EX DEM     TOTAL ENERGY        E CHANGE  DENSITY CHANGE    DIIS ERROR
   1  0  0      -30.7646305103   -30.7646305103   0.000508907   0.000000000
   2  1  0      -30.7646306351    -0.0000001248   0.000213939   0.000000000
   3  2  0      -30.7646306554    -0.0000000203   0.000096142   0.000000000
   4  3  0      -30.7646306597    -0.0000000043   0.000045501   0.000000000
   5  4  0      -30.7646306608    -0.0000000011   0.000022515   0.000000000
   6  5  0      -30.7646306611    -0.0000000003   0.000011549   0.000000000
   7  6  0      -30.7646306612    -0.0000000001   0.000006090   0.000000000

          -----------------
          DENSITY CONVERGED
          -----------------
     TIME TO FORM FOCK OPERATORS=       0.1 SECONDS (       0.0 SEC/ITER)
     TIME TO SOLVE SCF EQUATIONS=       0.4 SECONDS (       0.1 SEC/ITER)

 FINAL R-PM3 ENERGY IS      -30.7646306612 AFTER   7 ITERATIONS

 HEAT OF FORMATION IS       -54.58044 KCAL/MOL
 

          ------------
          EIGENVECTORS
          ------------

                      1          2          3          4          5
                   -1.7219    -1.0040    -0.6892    -0.4732    -0.4731
                     A          A          A          A          A   
    1  C  1  S    0.000015   0.761151  -0.090099  -0.000092   0.000140
    2  C  1  X   -0.000002  -0.022651   0.128739  -0.001981   0.003134
    3  C  1  Y   -0.000000  -0.000037   0.000556   0.487254  -0.485860
    4  C  1  Z   -0.000000  -0.000008   0.000122  -0.485833  -0.487311
    5  BR 2  S    0.000001   0.160578   0.977373   0.000036  -0.000063
    6  BR 2  X   -0.000003  -0.215438   0.083479  -0.000506   0.000750
    7  BR 2  Y   -0.000000  -0.000975   0.000398   0.227247  -0.226745
    8  BR 2  Z   -0.000000  -0.000215   0.000086  -0.226580  -0.227418
    9  H  3  S    0.000019   0.340644  -0.066071   0.498122  -0.185242
   10  H  4  S    0.000020   0.340576  -0.066042  -0.409381  -0.338708
   11  H  5  S    0.000020   0.340449  -0.065989  -0.088588   0.523725
   12  CL 6  S    1.000000  -0.000033   0.000004   0.000000  -0.000000
   13  CL 6  X    0.000249   0.000018  -0.000005  -0.000001   0.000001
   14  CL 6  Y    0.000005   0.000000  -0.000000   0.000004  -0.000004
   15  CL 6  Z    0.000001   0.000000  -0.000000  -0.000004  -0.000004

                      6          7          8          9         10
                   -0.4377    -0.3449    -0.3449    -0.1311    -0.1311
                     A          A          A          A          A   
    1  C  1  S   -0.035104   0.000026   0.000039  -0.000064   0.000000
    2  C  1  X   -0.620005   0.000471   0.000731   0.000027  -0.000000
    3  C  1  Y   -0.003383  -0.149055  -0.147472   0.000002  -0.000006
    4  C  1  Z   -0.000767   0.147312  -0.149228   0.000000  -0.000008
    5  BR 2  S    0.048173  -0.000013  -0.000019   0.000003  -0.000000
    6  BR 2  X    0.732100  -0.002350  -0.003617  -0.000028   0.000000
    7  BR 2  Y    0.002950   0.673252   0.665294  -0.000000   0.000001
    8  BR 2  Z    0.000634  -0.665359   0.673199  -0.000000   0.000001
    9  H  3  S    0.158951  -0.187917  -0.068945   0.000024   0.000000
   10  H  4  S    0.159162   0.153678  -0.128309   0.000024   0.000001
   11  H  5  S    0.159533   0.034277   0.197333   0.000024  -0.000001
   12  CL 6  S   -0.000008  -0.000000  -0.000000  -0.000249  -0.000000
   13  CL 6  X    0.000024   0.000000   0.000000   0.999801  -0.015351
   14  CL 6  Y    0.000000  -0.000002  -0.000002   0.019633   0.643174
   15  CL 6  Z    0.000000   0.000002  -0.000002   0.003553   0.765566

                     11         12         13         14         15
                   -0.1311     0.0606     0.1970     0.2049     0.2049
                     A          A          A          A          A   
    1  C  1  S    0.000000   0.335572   0.546515   0.002642  -0.002112
    2  C  1  X   -0.000000   0.664965  -0.395364   0.000442  -0.000963
    3  C  1  Y   -0.000007   0.003173   0.002489  -0.574470   0.390531
    4  C  1  Z    0.000006   0.000701  -0.000070   0.390641   0.574389
    5  BR 2  S   -0.000000  -0.127586   0.018922   0.000080  -0.000062
    6  BR 2  X    0.000000   0.639996  -0.032134  -0.000217   0.000190
    7  BR 2  Y    0.000001   0.002919  -0.000362   0.026708  -0.018144
    8  BR 2  Z   -0.000001   0.000639  -0.000050  -0.018165  -0.026691
    9  H  3  S    0.000001  -0.080314  -0.428811   0.576240  -0.097175
   10  H  4  S   -0.000001  -0.080258  -0.425613  -0.376809  -0.449828
   11  H  5  S   -0.000000  -0.080177  -0.422594  -0.205661   0.552022
   12  CL 6  S   -0.000000   0.000003   0.000016   0.000000  -0.000000
   13  CL 6  X   -0.012746   0.000028   0.000075   0.000001  -0.000001
   14  CL 6  Y    0.765468   0.000000   0.000001  -0.000006   0.000004
   15  CL 6  Z   -0.643348   0.000000   0.000000   0.000004   0.000006
 ...... END OF RHF CALCULATION ......
 STEP CPU TIME =     0.47 TOTAL CPU TIME =          4.4 (      0.1 MIN)
 TOTAL WALL CLOCK TIME=          4.4 SECONDS, CPU UTILIZATION IS   100.00%

     ----------------------------------------------------------------
     PROPERTY VALUES FOR THE RHF   SELF-CONSISTENT FIELD WAVEFUNCTION
     ----------------------------------------------------------------

                    -------------
                    MOPAC CHARGES
                    -------------
         ATOM NO.   TYPE          CHARGE        ATOM  ELECTRON DENSITY
           1         C             -0.0503          4.0503
           2         BR            -0.1413          7.1413
           3         H              0.0636          0.9364
           4         H              0.0638          0.9362
           5         H              0.0641          0.9359
           6         CL            -1.0000          8.0000

          ---------------------
          ELECTROSTATIC MOMENTS
          ---------------------

 POINT   1           X           Y           Z (ANGS)      CHARGE
                -2.346222    1.063170   -0.004617       -1.00 (A.U.)
         DX          DY          DZ         /D/  (DEBYE)
    29.236840    0.455928    0.084131   29.240516
 ...... END OF PROPERTY EVALUATION ......
 STEP CPU TIME =     0.01 TOTAL CPU TIME =          4.4 (      0.1 MIN)
 TOTAL WALL CLOCK TIME=          4.4 SECONDS, CPU UTILIZATION IS   100.00%
 ---- SURFACE MAPPING GEOMETRY ----
 COORD 1= 3.600 COORD 2= 0.000
 HAS ENERGY VALUE     -30.764631
 C     -1.54658   1.09202   0.00047
 BR     0.38663   1.10084   0.00241
 H     -1.92083   2.04168  -0.43391
 H     -1.91747   0.99029   1.04104
 H     -1.91229   0.23861  -0.60702
 CL    -8.81305   0.96619  -0.02258
 ----------------------------------

 ATOM      ATOMIC                      COORDINATES (BOHR)
           CHARGE         X                   Y                   Z
 C           6.0    -2.9226124181        2.0636185731        0.0008881712
 BR         35.0     0.7306247586        2.0802859563        0.0045542396
 H           1.0    -3.6298423690        3.8582157546       -0.8199710033
 H           1.0    -3.6234928897        1.8713767484        1.9672803423
 H           1.0    -3.6137041091        0.4509075179       -1.1471014691
 CL         17.0   -16.4653105954        1.8291069017       -0.0420625491

          INTERNUCLEAR DISTANCES (ANGS.)
          ------------------------------

                1 C          2 BR         3 H          4 H          5 H     

   1 C       0.0000000    1.9332311 *  1.1093255 *  1.1093666 *  1.1095479 *
   2 BR      1.9332311 *  0.0000000    2.5298076 *  2.5297926 *  2.5297981 *
   3 H       1.1093255 *  2.5298076 *  0.0000000    1.8113282 *  1.8113811 *
   4 H       1.1093666 *  2.5297926 *  1.8113282 *  0.0000000    1.8113949 *
   5 H       1.1095479 *  2.5297981 *  1.8113811 *  1.8113949 *  0.0000000  
   6 CL      7.1675982    9.1007019    6.8888974    6.8783176    6.8647229  

                6 CL    

   1 C       7.1675982  
   2 BR      9.1007019  
   3 H       6.8888974  
   4 H       6.8783176  
   5 H       6.8647229  
   6 CL      0.0000000  

  * ... LESS THAN  3.000


          ********************
          1 ELECTRON INTEGRALS
          ********************

          **************************
          1 AND 2 ELECTRON INTEGRALS
          **************************

 MOPAC ONE- AND TWO-ELECTRON INTEGRALS REQUIRE       633 WORDS.
 ...... END OF ONE- AND TWO-ELECTRON INTEGRALS......
 STEP CPU TIME =     0.06 TOTAL CPU TIME =          4.4 (      0.1 MIN)
 TOTAL WALL CLOCK TIME=          4.4 SECONDS, CPU UTILIZATION IS   100.00%
 ...... END OF ONE-ELECTRON INTEGRALS ......
 STEP CPU TIME =     0.02 TOTAL CPU TIME =          4.5 (      0.1 MIN)
 TOTAL WALL CLOCK TIME=          4.5 SECONDS, CPU UTILIZATION IS   100.00%

          --------------------------
               R-PM3 SCF CALCULATION
          --------------------------

     NUCLEAR ENERGY =        22.5456074264
     MAXIT =   30     NPUNCH=    2
     EXTRAP=T  DAMP=F  SHIFT=F  RSTRCT=F  DIIS=F  DEM=F  SOSCF=F
     DENSITY MATRIX CONV=  1.00E-05
     MEMORY REQUIRED FOR RHF ITERS=      2274 WORDS.

 ITER EX DEM     TOTAL ENERGY        E CHANGE  DENSITY CHANGE    DIIS ERROR
   1  0  0      -30.7647127566   -30.7647127566   0.000527439   0.000000000
   2  1  0      -30.7647128906    -0.0000001340   0.000221443   0.000000000
   3  2  0      -30.7647129123    -0.0000000217   0.000099506   0.000000000
   4  3  0      -30.7647129170    -0.0000000046   0.000047090   0.000000000
   5  4  0      -30.7647129181    -0.0000000012   0.000023301   0.000000000
   6  5  0      -30.7647129185    -0.0000000003   0.000011952   0.000000000
   7  6  0      -30.7647129186    -0.0000000001   0.000006302   0.000000000

          -----------------
          DENSITY CONVERGED
          -----------------
     TIME TO FORM FOCK OPERATORS=       0.1 SECONDS (       0.0 SEC/ITER)
     TIME TO SOLVE SCF EQUATIONS=       0.4 SECONDS (       0.1 SEC/ITER)

 FINAL R-PM3 ENERGY IS      -30.7647129186 AFTER   7 ITERATIONS

 HEAT OF FORMATION IS       -54.63206 KCAL/MOL
 

          ------------
          EIGENVECTORS
          ------------

                      1          2          3          4          5
                   -1.7220    -1.0030    -0.6882    -0.4723    -0.4722
                     A          A          A          A          A   
    1  C  1  S    0.000018   0.761164  -0.090106  -0.000095   0.000144
    2  C  1  X   -0.000003  -0.022547   0.128693  -0.001989   0.003139
    3  C  1  Y   -0.000000  -0.000035   0.000555   0.487656  -0.485336
    4  C  1  Z   -0.000000  -0.000008   0.000121  -0.485307  -0.487714
    5  BR 2  S    0.000002   0.160587   0.977372   0.000037  -0.000064
    6  BR 2  X   -0.000003  -0.215546   0.083570  -0.000501   0.000742
    7  BR 2  Y   -0.000000  -0.000975   0.000399   0.227916  -0.226982
    8  BR 2  Z   -0.000000  -0.000215   0.000086  -0.226813  -0.228090
    9  H  3  S    0.000023   0.340614  -0.066065   0.498129  -0.184704
   10  H  4  S    0.000023   0.340544  -0.066035  -0.408915  -0.338982
   11  H  5  S    0.000024   0.340415  -0.065982  -0.089056   0.523454
   12  CL 6  S    1.000000  -0.000039   0.000005   0.000000  -0.000000
   13  CL 6  X    0.000259   0.000022  -0.000007  -0.000001   0.000001
   14  CL 6  Y    0.000006   0.000000  -0.000000   0.000005  -0.000005
   15  CL 6  Z    0.000001   0.000000  -0.000000  -0.000005  -0.000005

                      6          7          8          9         10
                   -0.4369    -0.3442    -0.3442    -0.1312    -0.1311
                     A          A          A          A          A   
    1  C  1  S   -0.034835   0.000027   0.000041  -0.000076   0.000000
    2  C  1  X   -0.619673   0.000471   0.000730   0.000033  -0.000000
    3  C  1  Y   -0.003393  -0.149541  -0.147712   0.000002  -0.000008
    4  C  1  Z   -0.000768   0.147549  -0.149719   0.000000  -0.000009
    5  BR 2  S    0.048038  -0.000013  -0.000019   0.000004  -0.000000
    6  BR 2  X    0.732376  -0.002351  -0.003613  -0.000034   0.000000
    7  BR 2  Y    0.002942   0.673648   0.664585  -0.000000   0.000001
    8  BR 2  Z    0.000633  -0.664652   0.673594  -0.000000   0.000002
    9  H  3  S    0.158986  -0.188274  -0.068900   0.000028   0.000000
   10  H  4  S    0.159202   0.153818  -0.128642   0.000028   0.000001
   11  H  5  S    0.159581   0.034495   0.197622   0.000029  -0.000001
   12  CL 6  S   -0.000010  -0.000000  -0.000000  -0.000259  -0.000000
   13  CL 6  X    0.000029   0.000000   0.000001   0.999802  -0.015336
   14  CL 6  Y    0.000000  -0.000003  -0.000003   0.019598   0.643996
   15  CL 6  Z    0.000000   0.000003  -0.000003   0.003546   0.764875

                     11         12         13         14         15
                   -0.1311     0.0614     0.1980     0.2058     0.2058
                     A          A          A          A          A   
    1  C  1  S    0.000000   0.335625   0.546479   0.002730  -0.002228
    2  C  1  X   -0.000000   0.665239  -0.395445   0.000362  -0.000897
    3  C  1  Y   -0.000009   0.003176   0.002668  -0.571678   0.394481
    4  C  1  Z    0.000007   0.000702  -0.000042   0.394594   0.571594
    5  BR 2  S   -0.000000  -0.127633   0.018929   0.000083  -0.000066
    6  BR 2  X    0.000000   0.639632  -0.032146  -0.000221   0.000197
    7  BR 2  Y    0.000001   0.002918  -0.000370   0.026550  -0.018308
    8  BR 2  Z   -0.000001   0.000639  -0.000052  -0.018329  -0.026533
    9  H  3  S    0.000001  -0.080429  -0.428926   0.575523  -0.101120
   10  H  4  S   -0.000001  -0.080372  -0.425611  -0.380050  -0.447160
   11  H  5  S   -0.000000  -0.080289  -0.422448  -0.201910   0.553572
   12  CL 6  S   -0.000000   0.000004   0.000019   0.000000  -0.000000
   13  CL 6  X   -0.012706   0.000033   0.000090   0.000002  -0.000002
   14  CL 6  Y    0.764778   0.000001   0.000001  -0.000008   0.000005
   15  CL 6  Z   -0.644168   0.000000   0.000000   0.000005   0.000008
 ...... END OF RHF CALCULATION ......
 STEP CPU TIME =     0.51 TOTAL CPU TIME =          5.0 (      0.1 MIN)
 TOTAL WALL CLOCK TIME=          5.0 SECONDS, CPU UTILIZATION IS   100.00%

     ----------------------------------------------------------------
     PROPERTY VALUES FOR THE RHF   SELF-CONSISTENT FIELD WAVEFUNCTION
     ----------------------------------------------------------------

                    -------------
                    MOPAC CHARGES
                    -------------
         ATOM NO.   TYPE          CHARGE        ATOM  ELECTRON DENSITY
           1         C             -0.0498          4.0498
           2         BR            -0.1422          7.1422
           3         H              0.0638          0.9362
           4         H              0.0640          0.9360
           5         H              0.0642          0.9358
           6         CL            -1.0000          8.0000

          ---------------------
          ELECTROSTATIC MOMENTS
          ---------------------

 POINT   1           X           Y           Z (ANGS)      CHARGE
                -2.319036    1.063641   -0.004531       -1.00 (A.U.)
         DX          DY          DZ         /D/  (DEBYE)
    28.878725    0.449794    0.083006   28.882347
 ...... END OF PROPERTY EVALUATION ......
 STEP CPU TIME =     0.01 TOTAL CPU TIME =          5.0 (      0.1 MIN)
 TOTAL WALL CLOCK TIME=          5.0 SECONDS, CPU UTILIZATION IS   100.00%
 ---- SURFACE MAPPING GEOMETRY ----
 COORD 1= 3.500 COORD 2= 0.000
 HAS ENERGY VALUE     -30.764713
 C     -1.54658   1.09202   0.00047
 BR     0.38663   1.10084   0.00241
 H     -1.92083   2.04168  -0.43391
 H     -1.91747   0.99029   1.04104
 H     -1.91229   0.23861  -0.60702
 CL    -8.71307   0.96792  -0.02226
 ----------------------------------

 ATOM      ATOMIC                      COORDINATES (BOHR)
           CHARGE         X                   Y                   Z
 C           6.0    -2.9226124181        2.0636185731        0.0008881712
 BR         35.0     0.7306247586        2.0802859563        0.0045542396
 H           1.0    -3.6298423690        3.8582157546       -0.8199710033
 H           1.0    -3.6234928897        1.8713767484        1.9672803423
 H           1.0    -3.6137041091        0.4509075179       -1.1471014691
 CL         17.0   -16.2763672729        1.8323787323       -0.0414633146

          INTERNUCLEAR DISTANCES (ANGS.)
          ------------------------------

                1 C          2 BR         3 H          4 H          5 H     

   1 C       0.0000000    1.9332311 *  1.1093255 *  1.1093666 *  1.1095479 *
   2 BR      1.9332311 *  0.0000000    2.5298076 *  2.5297926 *  2.5297981 *
   3 H       1.1093255 *  2.5298076 *  0.0000000    1.8113282 *  1.8113811 *
   4 H       1.1093666 *  2.5297926 *  1.8113282 *  0.0000000    1.8113949 *
   5 H       1.1095479 *  2.5297981 *  1.8113811 *  1.8113949 *  0.0000000  
   6 CL      7.0675982    9.0007023    6.7900820    6.7794979    6.7658977  

                6 CL    

   1 C       7.0675982  
   2 BR      9.0007023  
   3 H       6.7900820  
   4 H       6.7794979  
   5 H       6.7658977  
   6 CL      0.0000000  

  * ... LESS THAN  3.000


          ********************
          1 ELECTRON INTEGRALS
          ********************

          **************************
          1 AND 2 ELECTRON INTEGRALS
          **************************

 MOPAC ONE- AND TWO-ELECTRON INTEGRALS REQUIRE       633 WORDS.
 ...... END OF ONE- AND TWO-ELECTRON INTEGRALS......
 STEP CPU TIME =     0.05 TOTAL CPU TIME =          5.0 (      0.1 MIN)
 TOTAL WALL CLOCK TIME=          5.0 SECONDS, CPU UTILIZATION IS   100.00%
 ...... END OF ONE-ELECTRON INTEGRALS ......
 STEP CPU TIME =     0.01 TOTAL CPU TIME =          5.0 (      0.1 MIN)
 TOTAL WALL CLOCK TIME=          5.0 SECONDS, CPU UTILIZATION IS   100.00%

          --------------------------
               R-PM3 SCF CALCULATION
          --------------------------

     NUCLEAR ENERGY =        22.6279440568
     MAXIT =   30     NPUNCH=    2
     EXTRAP=T  DAMP=F  SHIFT=F  RSTRCT=F  DIIS=F  DEM=F  SOSCF=F
     DENSITY MATRIX CONV=  1.00E-05
     MEMORY REQUIRED FOR RHF ITERS=      2274 WORDS.

 ITER EX DEM     TOTAL ENERGY        E CHANGE  DENSITY CHANGE    DIIS ERROR
   1  0  0      -30.7647984525   -30.7647984525   0.000546875   0.000000000
   2  1  0      -30.7647985966    -0.0000001441   0.000229299   0.000000000
   3  2  0      -30.7647986199    -0.0000000233   0.000103027   0.000000000
   4  3  0      -30.7647986249    -0.0000000050   0.000048753   0.000000000
   5  4  0      -30.7647986262    -0.0000000013   0.000024123   0.000000000
   6  5  0      -30.7647986265    -0.0000000004   0.000012373   0.000000000
   7  6  0      -30.7647986266    -0.0000000001   0.000006524   0.000000000

          -----------------
          DENSITY CONVERGED
          -----------------
     TIME TO FORM FOCK OPERATORS=       0.1 SECONDS (       0.0 SEC/ITER)
     TIME TO SOLVE SCF EQUATIONS=       0.4 SECONDS (       0.1 SEC/ITER)

 FINAL R-PM3 ENERGY IS      -30.7647986266 AFTER   7 ITERATIONS

 HEAT OF FORMATION IS       -54.68584 KCAL/MOL
 

          ------------
          EIGENVECTORS
          ------------

                      1          2          3          4          5
                   -1.7221    -1.0021    -0.6873    -0.4714    -0.4713
                     A          A          A          A          A   
    1  C  1  S    0.000022   0.761178  -0.090115  -0.000098   0.000147
    2  C  1  X   -0.000003  -0.022438   0.128644  -0.001998   0.003146
    3  C  1  Y   -0.000000  -0.000033   0.000555   0.488058  -0.484804
    4  C  1  Z   -0.000000  -0.000008   0.000121  -0.484775  -0.488118
    5  BR 2  S    0.000002   0.160596   0.977371   0.000038  -0.000065
    6  BR 2  X   -0.000004  -0.215657   0.083665  -0.000495   0.000732
    7  BR 2  Y   -0.000000  -0.000976   0.000400   0.228604  -0.227234
    8  BR 2  Z   -0.000000  -0.000215   0.000086  -0.227061  -0.228782
    9  H  3  S    0.000028   0.340583  -0.066060   0.498129  -0.184160
   10  H  4  S    0.000028   0.340512  -0.066029  -0.408441  -0.339253
   11  H  5  S    0.000028   0.340381  -0.065974  -0.089525   0.523174
   12  CL 6  S    1.000000  -0.000046   0.000006   0.000000  -0.000000
   13  CL 6  X    0.000270   0.000026  -0.000008  -0.000001   0.000001
   14  CL 6  Y    0.000006   0.000000  -0.000000   0.000006  -0.000006
   15  CL 6  Z    0.000001   0.000000  -0.000000  -0.000006  -0.000006

                      6          7          8          9         10
                   -0.4361    -0.3435    -0.3435    -0.1313    -0.1312
                     A          A          A          A          A   
    1  C  1  S   -0.034555   0.000028   0.000042  -0.000091   0.000000
    2  C  1  X   -0.619330   0.000471   0.000729   0.000039  -0.000000
    3  C  1  Y   -0.003403  -0.150044  -0.147965   0.000002  -0.000009
    4  C  1  Z   -0.000770   0.147798  -0.150225   0.000000  -0.000011
    5  BR 2  S    0.047897  -0.000014  -0.000020   0.000005  -0.000000
    6  BR 2  X    0.732661  -0.002352  -0.003608  -0.000040   0.000000
    7  BR 2  Y    0.002934   0.674041   0.663866  -0.000001   0.000002
    8  BR 2  Z    0.000632  -0.663934   0.673985  -0.000000   0.000002
    9  H  3  S    0.159022  -0.188645  -0.068858   0.000034   0.000000
   10  H  4  S    0.159244   0.153967  -0.128985   0.000034   0.000001
   11  H  5  S    0.159631   0.034717   0.197923   0.000034  -0.000002
   12  CL 6  S   -0.000012  -0.000000  -0.000000  -0.000270  -0.000000
   13  CL 6  X    0.000034   0.000001   0.000001   0.999802  -0.015321
   14  CL 6  Y    0.000001  -0.000003  -0.000003   0.019560   0.644796
   15  CL 6  Z    0.000000   0.000003  -0.000004   0.003540   0.764202

                     11         12         13         14         15
[...]
 H     -1.92083   2.04168  -0.43391
 H     -1.91747   0.99029   1.04104
 H     -1.91229   0.23861  -0.60702
 CL    -7.01333   0.99736  -0.01687
 ----------------------------------

 ATOM      ATOMIC                      COORDINATES (BOHR)
           CHARGE         X                   Y                   Z
 C           6.0    -2.9226124181        2.0636185731        0.0008881712
 BR         35.0     0.7306247586        2.0802859563        0.0045542396
 H           1.0    -3.6298423690        3.8582157546       -0.8199710033
 H           1.0    -3.6234928897        1.8713767484        1.9672803423
 H           1.0    -3.6137041091        0.4509075179       -1.1471014691
 CL         17.0   -13.0643307899        1.8879998526       -0.0312763283

          INTERNUCLEAR DISTANCES (ANGS.)
          ------------------------------

                1 C          2 BR         3 H          4 H          5 H     

   1 C       0.0000000    1.9332311 *  1.1093255 *  1.1093666 *  1.1095479 *
   2 BR      1.9332311 *  0.0000000    2.5298076 *  2.5297926 *  2.5297981 *
   3 H       1.1093255 *  2.5298076 *  0.0000000    1.8113282 *  1.8113811 *
   4 H       1.1093666 *  2.5297926 *  1.8113282 *  0.0000000    1.8113949 *
   5 H       1.1095479 *  2.5297981 *  1.8113811 *  1.8113949 *  0.0000000  
   6 CL      5.3675982    7.3007104    5.1172661    5.1065995    5.0928917  

                6 CL    

   1 C       5.3675982  
   2 BR      7.3007104  
   3 H       5.1172661  
   4 H       5.1065995  
   5 H       5.0928917  
   6 CL      0.0000000  

  * ... LESS THAN  3.000


          ********************
          1 ELECTRON INTEGRALS
          ********************

          **************************
          1 AND 2 ELECTRON INTEGRALS
          **************************

 MOPAC ONE- AND TWO-ELECTRON INTEGRALS REQUIRE       633 WORDS.
 ...... END OF ONE- AND TWO-ELECTRON INTEGRALS......
 STEP CPU TIME =     0.06 TOTAL CPU TIME =         15.0 (      0.3 MIN)
 TOTAL WALL CLOCK TIME=         15.0 SECONDS, CPU UTILIZATION IS   100.00%
 ...... END OF ONE-ELECTRON INTEGRALS ......
 STEP CPU TIME =     0.02 TOTAL CPU TIME =         15.0 (      0.3 MIN)
 TOTAL WALL CLOCK TIME=         15.0 SECONDS, CPU UTILIZATION IS   100.00%

          --------------------------
               R-PM3 SCF CALCULATION
          --------------------------

     NUCLEAR ENERGY =        24.4362397731
     MAXIT =   30     NPUNCH=    2
     EXTRAP=T  DAMP=F  SHIFT=F  RSTRCT=F  DIIS=F  DEM=F  SOSCF=F
     DENSITY MATRIX CONV=  1.00E-05
     MEMORY REQUIRED FOR RHF ITERS=      2274 WORDS.

 ITER EX DEM     TOTAL ENERGY        E CHANGE  DENSITY CHANGE    DIIS ERROR
   1  0  0      -30.7670381251   -30.7670381251   0.001087981   0.000000000
   2  1  0      -30.7670387492    -0.0000006241   0.000442448   0.000000000
   3  2  0      -30.7670388414    -0.0000000922   0.000198526   0.000000000
   4  3  0      -30.7670388601    -0.0000000188   0.000093850   0.000000000
   5  4  0      -30.7670388648    -0.0000000047   0.000046404   0.000000000
   6  5  0      -30.7670388661    -0.0000000013   0.000023790   0.000000000
   7  6  0      -30.7670388665    -0.0000000004   0.000012540   0.000000000
   8  7  0      -30.7670388666    -0.0000000001   0.000006747   0.000000000

          -----------------
          DENSITY CONVERGED
          -----------------
     TIME TO FORM FOCK OPERATORS=       0.1 SECONDS (       0.0 SEC/ITER)
     TIME TO SOLVE SCF EQUATIONS=       0.5 SECONDS (       0.1 SEC/ITER)

 FINAL R-PM3 ENERGY IS      -30.7670388666 AFTER   8 ITERATIONS

 HEAT OF FORMATION IS       -56.09165 KCAL/MOL
 

          ------------
          EIGENVECTORS
          ------------

                      1          2          3          4          5
                   -1.7248    -0.9811    -0.6661    -0.4508    -0.4507
                     A          A          A          A          A   
    1  C  1  S    0.000460   0.761499  -0.090377  -0.000166   0.000234
    2  C  1  X   -0.000077  -0.019584   0.127384  -0.002220   0.003345
    3  C  1  Y   -0.000003   0.000025   0.000530   0.494422  -0.474738
    4  C  1  Z   -0.000000   0.000003   0.000117  -0.474680  -0.494518
    5  BR 2  S    0.000042   0.160893   0.977336   0.000061  -0.000095
    6  BR 2  X   -0.000080  -0.218433   0.085988  -0.000315   0.000460
    7  BR 2  Y   -0.000001  -0.000982   0.000417   0.244655  -0.235148
    8  BR 2  Z   -0.000000  -0.000217   0.000090  -0.234879  -0.244938
    9  H  3  S    0.000549   0.339813  -0.065950   0.496611  -0.174083
   10  H  4  S    0.000557   0.339697  -0.065903  -0.398846  -0.342945
   11  H  5  S    0.000568   0.339510  -0.065826  -0.097449   0.516583
   12  CL 6  S    0.999999  -0.000945   0.000128   0.000006  -0.000008
   13  CL 6  X    0.000609   0.000568  -0.000173  -0.000018   0.000025
   14  CL 6  Y    0.000012   0.000009  -0.000003   0.000159  -0.000157
   15  CL 6  Z    0.000002   0.000002  -0.000000  -0.000154  -0.000165

                      6          7          8          9         10
                   -0.4185    -0.3286    -0.3286    -0.1341    -0.1339
                     A          A          A          A          A   
    1  C  1  S   -0.027686   0.000051   0.000072  -0.001736   0.000005
    2  C  1  X   -0.610813   0.000471   0.000712   0.000755  -0.000001
    3  C  1  Y   -0.003715  -0.162022  -0.155205   0.000049  -0.000258
    4  C  1  Z   -0.000826   0.154935  -0.162319   0.000009  -0.000297
    5  BR 2  S    0.044442  -0.000019  -0.000027   0.000106  -0.000000
    6  BR 2  X    0.739528  -0.002350  -0.003494  -0.000855   0.000002
    7  BR 2  Y    0.002682   0.679534   0.649683  -0.000012   0.000047
    8  BR 2  Z    0.000586  -0.649788   0.679437  -0.000002   0.000054
    9  H  3  S    0.159991  -0.197695  -0.068864   0.000552   0.000005
   10  H  4  S    0.160383   0.158505  -0.136845   0.000554   0.000014
   11  H  5  S    0.161000   0.039250   0.205816   0.000556  -0.000024
   12  CL 6  S   -0.000246  -0.000002  -0.000003  -0.000609  -0.000001
   13  CL 6  X    0.000774   0.000012   0.000017   0.999816  -0.014821
   14  CL 6  Y    0.000012  -0.000104  -0.000102   0.018710   0.655229
   15  CL 6  Z    0.000002   0.000100  -0.000107   0.003388   0.755285

                     11         12         13         14         15
                   -0.1339     0.0796     0.2215     0.2282     0.2283
                     A          A          A          A          A   
    1  C  1  S    0.000004   0.337109   0.545410   0.005695  -0.005908
    2  C  1  X   -0.000001   0.672212  -0.398000  -0.001979   0.001570
    3  C  1  Y   -0.000289   0.003273   0.008577  -0.536860   0.437623
    4  C  1  Z    0.000251   0.000720   0.000845   0.437841   0.536723
    5  BR 2  S   -0.000000  -0.128786   0.019164   0.000185  -0.000189
    6  BR 2  X    0.000002   0.630006  -0.032626  -0.000375   0.000400
    7  BR 2  Y    0.000052   0.002879  -0.000644   0.024248  -0.019742
    8  BR 2  Z   -0.000045   0.000630  -0.000093  -0.019780  -0.024217
    9  H  3  S    0.000019  -0.083709  -0.432717   0.564548  -0.144436
   10  H  4  S   -0.000017  -0.083627  -0.425461  -0.418077  -0.413764
   11  H  5  S   -0.000006  -0.083510  -0.417556  -0.159866   0.572135
   12  CL 6  S   -0.000001   0.000092   0.000426   0.000009  -0.000010
   13  CL 6  X   -0.011911   0.000769   0.001924   0.000046  -0.000051
   14  CL 6  Y    0.755198   0.000012   0.000033  -0.000222   0.000186
   15  CL 6  Z   -0.655388   0.000002   0.000006   0.000181   0.000228
 ...... END OF RHF CALCULATION ......
 STEP CPU TIME =     0.56 TOTAL CPU TIME =         15.6 (      0.3 MIN)
 TOTAL WALL CLOCK TIME=         15.6 SECONDS, CPU UTILIZATION IS   100.00%

     ----------------------------------------------------------------
     PROPERTY VALUES FOR THE RHF   SELF-CONSISTENT FIELD WAVEFUNCTION
     ----------------------------------------------------------------

                    -------------
                    MOPAC CHARGES
                    -------------
         ATOM NO.   TYPE          CHARGE        ATOM  ELECTRON DENSITY
           1         C             -0.0379          4.0379
           2         BR            -0.1662          7.1662
           3         H              0.0677          0.9323
           4         H              0.0680          0.9320
           5         H              0.0684          0.9316
           6         CL            -1.0000          8.0000

          ---------------------
          ELECTROSTATIC MOMENTS
          ---------------------

 POINT   1           X           Y           Z (ANGS)      CHARGE
                -1.829699    1.072114   -0.002979       -1.00 (A.U.)
         DX          DY          DZ         /D/  (DEBYE)
    22.361438    0.338643    0.062622   22.364090
 ...... END OF PROPERTY EVALUATION ......
 STEP CPU TIME =     0.01 TOTAL CPU TIME =         15.6 (      0.3 MIN)
 TOTAL WALL CLOCK TIME=         15.6 SECONDS, CPU UTILIZATION IS   100.00%
 ---- SURFACE MAPPING GEOMETRY ----
 COORD 1= 1.700 COORD 2= 0.000
 HAS ENERGY VALUE     -30.767039
 C     -1.54658   1.09202   0.00047
 BR     0.38663   1.10084   0.00241
 H     -1.92083   2.04168  -0.43391
 H     -1.91747   0.99029   1.04104
 H     -1.91229   0.23861  -0.60702
 CL    -6.91335   0.99909  -0.01655
 ----------------------------------

 ATOM      ATOMIC                      COORDINATES (BOHR)
           CHARGE         X                   Y                   Z
 C           6.0    -2.9226124181        2.0636185731        0.0008881712
 BR         35.0     0.7306247586        2.0802859563        0.0045542396
 H           1.0    -3.6298423690        3.8582157546       -0.8199710033
 H           1.0    -3.6234928897        1.8713767484        1.9672803423
 H           1.0    -3.6137041091        0.4509075179       -1.1471014691
 CL         17.0   -12.8753874674        1.8912716832       -0.0306770938

          INTERNUCLEAR DISTANCES (ANGS.)
          ------------------------------

                1 C          2 BR         3 H          4 H          5 H     

   1 C       0.0000000    1.9332311 *  1.1093255 *  1.1093666 *  1.1095479 *
   2 BR      1.9332311 *  0.0000000    2.5298076 *  2.5297926 *  2.5297981 *
   3 H       1.1093255 *  2.5298076 *  0.0000000    1.8113282 *  1.8113811 *
   4 H       1.1093666 *  2.5297926 *  1.8113282 *  0.0000000    1.8113949 *
   5 H       1.1095479 *  2.5297981 *  1.8113811 *  1.8113949 *  0.0000000  
   6 CL      5.2675982    7.2007110    5.0194340    5.0087621    4.9950473  

                6 CL    

   1 C       5.2675982  
   2 BR      7.2007110  
   3 H       5.0194340  
   4 H       5.0087621  
   5 H       4.9950473  
   6 CL      0.0000000  

  * ... LESS THAN  3.000


          ********************
          1 ELECTRON INTEGRALS
          ********************

          **************************
          1 AND 2 ELECTRON INTEGRALS
          **************************

 MOPAC ONE- AND TWO-ELECTRON INTEGRALS REQUIRE       633 WORDS.
 ...... END OF ONE- AND TWO-ELECTRON INTEGRALS......
 STEP CPU TIME =     0.05 TOTAL CPU TIME =         15.7 (      0.3 MIN)
 TOTAL WALL CLOCK TIME=         15.7 SECONDS, CPU UTILIZATION IS   100.00%
 ...... END OF ONE-ELECTRON INTEGRALS ......
 STEP CPU TIME =     0.01 TOTAL CPU TIME =         15.7 (      0.3 MIN)
 TOTAL WALL CLOCK TIME=         15.7 SECONDS, CPU UTILIZATION IS   100.00%

          --------------------------
               R-PM3 SCF CALCULATION
          --------------------------

     NUCLEAR ENERGY =        24.5741160047
     MAXIT =   30     NPUNCH=    2
     EXTRAP=T  DAMP=F  SHIFT=F  RSTRCT=F  DIIS=F  DEM=F  SOSCF=F
     DENSITY MATRIX CONV=  1.00E-05
     MEMORY REQUIRED FOR RHF ITERS=      2274 WORDS.

 ITER EX DEM     TOTAL ENERGY        E CHANGE  DENSITY CHANGE    DIIS ERROR
   1  0  0      -30.7672373258   -30.7672373258   0.001138677   0.000000000
   2  1  0      -30.7672380258    -0.0000007000   0.000462157   0.000000000
   3  2  0      -30.7672381278    -0.0000001020   0.000207397   0.000000000
   4  3  0      -30.7672381484    -0.0000000206   0.000098055   0.000000000
   5  4  0      -30.7672381535    -0.0000000051   0.000048488   0.000000000
   6  5  0      -30.7672381550    -0.0000000014   0.000024860   0.000000000
   7  6  0      -30.7672381554    -0.0000000004   0.000013104   0.000000000
   8  7  0      -30.7672381555    -0.0000000001   0.000007051   0.000000000

          -----------------
          DENSITY CONVERGED
          -----------------
     TIME TO FORM FOCK OPERATORS=       0.1 SECONDS (       0.0 SEC/ITER)
     TIME TO SOLVE SCF EQUATIONS=       0.4 SECONDS (       0.1 SEC/ITER)

 FINAL R-PM3 ENERGY IS      -30.7672381555 AFTER   8 ITERATIONS

 HEAT OF FORMATION IS       -56.21671 KCAL/MOL
 

          ------------
          EIGENVECTORS
          ------------

                      1          2          3          4          5
                   -1.7251    -0.9795    -0.6645    -0.4492    -0.4491
                     A          A          A          A          A   
    1  C  1  S    0.000551   0.761524  -0.090404  -0.000172   0.000242
    2  C  1  X   -0.000093  -0.019329   0.127271  -0.002240   0.003366
    3  C  1  Y   -0.000003   0.000030   0.000527   0.494730  -0.474076
    4  C  1  Z   -0.000001   0.000004   0.000116  -0.474016  -0.494830
    5  BR 2  S    0.000050   0.160923   0.977332   0.000063  -0.000098
    6  BR 2  X   -0.000095  -0.218670   0.086184  -0.000295   0.000433
    7  BR 2  Y   -0.000001  -0.000982   0.000418   0.245963  -0.235935
    8  BR 2  Z   -0.000000  -0.000217   0.000090  -0.235657  -0.246255
    9  H  3  S    0.000654   0.339747  -0.065944   0.496383  -0.173442
   10  H  4  S    0.000663   0.339628  -0.065894  -0.398166  -0.343066
   11  H  5  S    0.000675   0.339436  -0.065815  -0.097886   0.516043
   12  CL 6  S    0.999999  -0.001127   0.000153   0.000007  -0.000009
   13  CL 6  X    0.000643   0.000682  -0.000209  -0.000022   0.000030
   14  CL 6  Y    0.000013   0.000011  -0.000003   0.000195  -0.000192
   15  CL 6  Z    0.000002   0.000002  -0.000001  -0.000187  -0.000201

                      6          7          8          9         10
                   -0.4172    -0.3275    -0.3274    -0.1344    -0.1341
                     A          A          A          A          A   
    1  C  1  S   -0.027109   0.000053   0.000074  -0.002056   0.000006
    2  C  1  X   -0.610090   0.000470   0.000711   0.000893  -0.000001
    3  C  1  Y   -0.003746  -0.163015  -0.155888   0.000058  -0.000314
    4  C  1  Z   -0.000831   0.155608  -0.163323   0.000011  -0.000361
    5  BR 2  S    0.044150  -0.000020  -0.000028   0.000128  -0.000000
    6  BR 2  X    0.740094  -0.002347  -0.003484  -0.001027   0.000002
    7  BR 2  Y    0.002656   0.679726   0.648706  -0.000015   0.000057
    8  BR 2  Z    0.000581  -0.648815   0.679625  -0.000003   0.000066
    9  H  3  S    0.160078  -0.198462  -0.068934   0.000641   0.000005
   10  H  4  S    0.160488   0.158949  -0.137477   0.000643   0.000015
   11  H  5  S    0.161127   0.039575   0.206520   0.000646  -0.000027
   12  CL 6  S   -0.000294  -0.000003  -0.000004  -0.000644  -0.000001
   13  CL 6  X    0.000933   0.000015   0.000020   0.999817  -0.014777
   14  CL 6  Y    0.000014  -0.000128  -0.000125   0.018645   0.655661
   15  CL 6  Z    0.000003   0.000122  -0.000132   0.003377   0.754910

                     11         12         13         14         15
                   -0.1341     0.0809     0.2232     0.2299     0.2300
                     A          A          A          A          A   
    1  C  1  S    0.000005   0.337236   0.545313   0.005998  -0.006275
    2  C  1  X   -0.000001   0.672754  -0.398239  -0.002207   0.001831
    3  C  1  Y   -0.000351   0.003281   0.009175  -0.535444   0.439100
    4  C  1  Z    0.000305   0.000721   0.000931   0.439331   0.535304
    5  BR 2  S   -0.000000  -0.128871   0.019186   0.000195  -0.000202
    6  BR 2  X    0.000002   0.629229  -0.032676  -0.000391   0.000420
    7  BR 2  Y    0.000064   0.002876  -0.000671   0.024130  -0.019764
    8  BR 2  Z   -0.000056   0.000630  -0.000097  -0.019803  -0.024098
    9  H  3  S    0.000022  -0.083993  -0.433102   0.563980  -0.145856
   10  H  4  S   -0.000019  -0.083908  -0.425441  -0.419633  -0.412343
   11  H  5  S   -0.000007  -0.083789  -0.417056  -0.158453   0.572997
   12  CL 6  S   -0.000001   0.000110   0.000504   0.000012  -0.000013
   13  CL 6  X   -0.011862   0.000918   0.002261   0.000056  -0.000062
   14  CL 6  Y    0.754825   0.000014   0.000040  -0.000267   0.000225
   15  CL 6  Z   -0.655819   0.000003   0.000007   0.000219   0.000275
 ...... END OF RHF CALCULATION ......
 STEP CPU TIME =     0.54 TOTAL CPU TIME =         16.2 (      0.3 MIN)
 TOTAL WALL CLOCK TIME=         16.2 SECONDS, CPU UTILIZATION IS   100.00%

     ----------------------------------------------------------------
     PROPERTY VALUES FOR THE RHF   SELF-CONSISTENT FIELD WAVEFUNCTION
     ----------------------------------------------------------------

                    -------------
                    MOPAC CHARGES
                    -------------
         ATOM NO.   TYPE          CHARGE        ATOM  ELECTRON DENSITY
           1         C             -0.0369          4.0369
           2         BR            -0.1681          7.1681
           3         H              0.0680          0.9320
           4         H              0.0683          0.9317
           5         H              0.0688          0.9312
           6         CL            -1.0000          8.0000

          ---------------------
          ELECTROSTATIC MOMENTS
          ---------------------

 POINT   1           X           Y           Z (ANGS)      CHARGE
                -1.802514    1.072585   -0.002893       -1.00 (A.U.)
         DX          DY          DZ         /D/  (DEBYE)
    21.993722    0.332409    0.061478   21.996320
 ...... END OF PROPERTY EVALUATION ......
 STEP CPU TIME =     0.02 TOTAL CPU TIME =         16.2 (      0.3 MIN)
 TOTAL WALL CLOCK TIME=         16.2 SECONDS, CPU UTILIZATION IS   100.00%
 ---- SURFACE MAPPING GEOMETRY ----
 COORD 1= 1.600 COORD 2= 0.000
 HAS ENERGY VALUE     -30.767238
 C     -1.54658   1.09202   0.00047
 BR     0.38663   1.10084   0.00241
 H     -1.92083   2.04168  -0.43391
 H     -1.91747   0.99029   1.04104
 H     -1.91229   0.23861  -0.60702
 CL    -6.81336   1.00082  -0.01623
 ----------------------------------
 ... DONE WITH POTENTIAL SURFACE SCAN ...
 STEP CPU TIME =     0.01 TOTAL CPU TIME =         16.2 (      0.3 MIN)
 TOTAL WALL CLOCK TIME=         16.2 SECONDS, CPU UTILIZATION IS   100.00%
                   580000  WORDS OF DYNAMIC MEMORY USED
 EXECUTION OF GAMESS TERMINATED NORMALLY Fri Sep 11 09:24:02 2020
 DDI: 263640 bytes (0.3 MB / 0 MWords) used by master data server.

 ----------------------------------------
 CPU timing information for all processes
 ========================================
 0: 2.015625 + 8.656250 = 10.671875
 1: 0.015625 + 0.031250 = 0.046875
 ----------------------------------------
           Disk usage (in bytes)       
 ========================================
09/11/2020  09:23 a. m.               691 SN2.F05
09/11/2020  09:23 a. m.                 0 SN2.F08
09/11/2020  09:24 a. m.        52,428,800 SN2.F10
09/11/2020  09:23 a. m.            16,804 SN2.GMS.ENV
09/11/2020  09:23 a. m.               117 SN2.processes.mpd
 ----------------------------------------
            Local date and time          
 ========================================
09/11/2020 -  9:24:09.02                          
