          ******************************************************
          *      GAMESS VERSION = 30 JUN 2019 R1 Patch 1       *
          *             FROM IOWA STATE UNIVERSITY             *
          * M.W.SCHMIDT, K.K.BALDRIDGE, J.A.BOATZ, S.T.ELBERT, *
          *   M.S.GORDON, J.H.JENSEN, S.KOSEKI, N.MATSUNAGA,   *
          *          K.A.NGUYEN, S.J.SU, T.L.WINDUS,           *
          *       TOGETHER WITH M.DUPUIS, J.A.MONTGOMERY       *
          *         J.COMPUT.CHEM.  14, 1347-1363(1993)        *
          *************** 64 BIT WINDOWS VERSION ***************

  SINCE 1993, STUDENTS AND POSTDOCS WORKING AT IOWA STATE UNIVERSITY
  AND ALSO IN THEIR VARIOUS JOBS AFTER LEAVING ISU HAVE MADE IMPORTANT
  CONTRIBUTIONS TO THE CODE:
     IVANA ADAMOVIC, CHRISTINE AIKENS, YURI ALEXEEV, POOJA ARORA,
     ANDREY ASADCHEV, ROB BELL, PRADIPTA BANDYOPADHYAY, JONATHAN BENTZ,
     COLLEEN BERTONI, BRETT BODE, KURT BRORSEN, CALEB CARLIN, GALINA CHABAN,
     WEI CHEN, CHEOL HO CHOI, PAUL DAY, ALBERT DEFUSCO, NUWAN DESILVA,
     TIM DUDLEY, DMITRI FEDOROV, ALEX FINDLATER, GRAHAM FLETCHER, 
     MARK FREITAG, KURT GLAESEMANN, ANASTASIA GUNINA,
     DAN KEMP, GRANT MERRILL, NORIYUKI MINEZAWA, JONATHAN MULLIN,
     TAKESHI NAGATA, SEAN NEDD, HEATHER NETZLOFF, BOSILJKA NJEGIC, RYAN OLSON,
     MIKE PAK, BUU PHAM,
     SPENCER PRUITT, LUKE ROSKOP, JIM SHOEMAKER, LYUDMILA SLIPCHENKO,
     TONY SMITH, SAROM SOK LEANG, JIE SONG, TETSUYA TAKETSUGU, SIMON WEBB,
     PENG XU, SOOHAENG YOO, FEDERICO ZAHARIEV

  ADDITIONAL CODE HAS BEEN PROVIDED BY COLLABORATORS IN OTHER GROUPS:
     IOWA STATE UNIVERSITY:
          JOE IVANIC, AARON WEST, LAIMUTIS BYTAUTAS, KLAUS RUEDENBERG
     UNIVERSITY OF TOKYO: KIMIHIKO HIRAO, TAKAHITO NAKAJIMA,
          TAKAO TSUNEDA, MUNEAKI KAMIYA, SUSUMU YANAGISAWA,
          KIYOSHI YAGI, MAHITO CHIBA, SEIKEN TOKURA, NAOAKI KAWAKAMI
     UNIVERSITY OF AARHUS: FRANK JENSEN
     UNIVERSITY OF IOWA: VISVALDAS KAIRYS, HUI LI
     NATIONAL INST. OF STANDARDS AND TECHNOLOGY: WALT STEVENS, DAVID GARMER
     UNIVERSITY OF PISA: BENEDETTA MENNUCCI, JACOPO TOMASI
     UNIVERSITY OF MEMPHIS: HENRY KURTZ, PRAKASHAN KORAMBATH
     UNIVERSITY OF ALBERTA: TOBY ZENG, MARIUSZ KLOBUKOWSKI
     UNIVERSITY OF NEW ENGLAND: MARK SPACKMAN
     MIE UNIVERSITY: HIROAKI UMEDA
     NAT. INST. OF ADVANCED INDUSTRIAL SCIENCE AND TECHNOLOGY: KAZUO KITAURA
     MICHIGAN STATE UNIVERSITY:
          KAROL KOWALSKI, MARTA WLOCH, JEFFREY GOUR, JESSE LUTZ,
          WEI LI, JUN SHEN, J. EMILIANO DEUSTUA, PIOTR PIECUCH
     UNIVERSITY OF MINNESOTA:
          YINAN SHU
     UNIVERSITY OF SILESIA: MONIKA MUSIAL, STANISLAW KUCHARSKI
     FACULTES UNIVERSITAIRES NOTRE-DAME DE LA PAIX:
          OLIVIER QUINET, BENOIT CHAMPAGNE
     UNIVERSITY OF CALIFORNIA - SANTA BARBARA: BERNARD KIRTMAN
     INSTITUTE FOR MOLECULAR SCIENCE:
          KAZUYA ISHIMURA, MICHIO KATOUDA, AND SHIGERU NAGASE
     UNIVERSITY OF NOTRE DAME: ANNA POMOGAEVA, DAN CHIPMAN
     KYUSHU UNIVERSITY:
          HARUYUKI NAKANO,
          FENG LONG GU, JACEK KORCHOWIEC, MARCIN MAKOWSKI, AND YURIKO AOKI,
          HIROTOSHI MORI AND EISAKU MIYOSHI
     PENNSYLVANIA STATE UNIVERSITY:
          TZVETELIN IORDANOV, CHET SWALINA, JONATHAN SKONE,
          SHARON HAMMES-SCHIFFER
     WASEDA UNIVERSITY:
          MASATO KOBAYASHI, TOMOKO AKAMA, TSUGUKI TOUMA,
          TAKESHI YOSHIKAWA, YASUHIRO IKABATA, JUNJI SEINO,
          YUYA NAKAJIMA, HIROMI NAKAI
     NANJING UNIVERSITY: SHUHUA LI
     UNIVERSITY OF NEBRASKA:
          PEIFENG SU, DEJUN SI, NANDUN THELLAMUREGE, YALI WANG, HUI LI
     UNIVERSITY OF ZURICH: ROBERTO PEVERATI, KIM BALDRIDGE
     N. COPERNICUS UNIVERSITY AND JACKSON STATE UNIVERSITY:
          MARIA BARYSZ
     UNIVERSITY OF COPENHAGEN: Jimmy Kromann, CASPER STEINMANN
     TOKYO INSTITUTE OF TECHNOLOGY: HIROYA NAKATA
     NAGOYA UNIVERSITY: YOSHIO NISHIMOTO, STEPHAN IRLE
     MOSCOW STATE UNIVERSITY: VLADIMIR MIRONOV
     A.N.NESMEYANOV INSTITUTE OF ORGANOELEMENT COMPOUNDS OF RUSSIAN ACADEMY OF SCIENCES:
          IGOR S. GERASIMOV

 EXECUTION OF GAMESS BEGUN Thu Sep 10 23:25:24 2020

            ECHO OF THE FIRST FEW INPUT CARDS -
 INPUT CARD>!   File created by the GAMESS Input Deck Generator Plugin for Avogadro         
 INPUT CARD> $BASIS GBASIS=PM3 $END                                                         
 INPUT CARD> $CONTRL SCFTYP=RHF RUNTYP=SURFACE MULT=1 ICHARG=-1  NZVAR=1 $END               
 INPUT CARD> $CONTRL EXETYP=RUN $END                                                        
 INPUT CARD> $STATPT OPTTOL=0.0005 NSTEP=50 NOREG=5 $END                                    
 INPUT CARD> $ZMAT DLC=.t. auto=.t. nonvdw(1)=1,2 1,6 $END                                  
 INPUT CARD> $surf ndisp1=20 disp1=-0.1 ivec1(1)=1,6 IGRP1(1)=6 orig1=0.0 $end              
 INPUT CARD> $DATA                                                                          
 INPUT CARD>Title                                                                           
 INPUT CARD>C1                                                                              
 INPUT CARD>C     6.0    -1.54658     1.09202     0.00047                                   
 INPUT CARD>Br   35.0     0.38663     1.10084     0.00241                                   
 INPUT CARD>H     1.0    -1.92083     2.04168    -0.43391                                   
 INPUT CARD>H     1.0    -1.91747     0.99029     1.04104                                   
 INPUT CARD>H     1.0    -1.91229     0.23861    -0.60702                                   
 INPUT CARD>Cl   17.0    -5.21361     1.02852    -0.01116                                   
 INPUT CARD> $END                                                                           
    1000000 WORDS OF MEMORY AVAILABLE

     BASIS OPTIONS
     -------------
     GBASIS=PM3          IGAUSS=       0      POLAR=NONE    
     NDFUNC=       0     NFFUNC=       0     DIFFSP=       F
     NPFUNC=       0      DIFFS=       F     BASNAM=        


     RUN TITLE
     ---------
 Title                                                                           

 THE POINT GROUP OF THE MOLECULE IS C1      
 THE ORDER OF THE PRINCIPAL AXIS IS     0

 ATOM      ATOMIC                      COORDINATES (BOHR)
           CHARGE         X                   Y                   Z
 C           6.0    -2.9226124181        2.0636185731        0.0008881712
 BR         35.0     0.7306247586        2.0802859563        0.0045542396
 H           1.0    -3.6298423690        3.8582157546       -0.8199710033
 H           1.0    -3.6234928897        1.8713767484        1.9672803423
 H           1.0    -3.6137041091        0.4509075179       -1.1471014691
 CL         17.0    -9.8522943068        1.9436209729       -0.0210893420

          INTERNUCLEAR DISTANCES (ANGS.)
          ------------------------------

                1 C          2 BR         3 H          4 H          5 H     

   1 C       0.0000000    1.9332311 *  1.1093255 *  1.1093666 *  1.1095479 *
   2 BR      1.9332311 *  0.0000000    2.5298076 *  2.5297926 *  2.5297981 *
   3 H       1.1093255 *  2.5298076 *  0.0000000    1.8113282 *  1.8113811 *
   4 H       1.1093666 *  2.5297926 *  1.8113282 *  0.0000000    1.8113949 *
   5 H       1.1095479 *  2.5297981 *  1.8113811 *  1.8113949 *  0.0000000  
   6 CL      3.6675982    5.6007234    3.4709669    3.4602204    3.4464069  

                6 CL    

   1 C       3.6675982  
   2 BR      5.6007234  
   3 H       3.4709669  
   4 H       3.4602204  
   5 H       3.4464069  
   6 CL      0.0000000  

  * ... LESS THAN  3.000


 TOTAL NUMBER OF BASIS SET SHELLS             =    6
 NUMBER OF CARTESIAN GAUSSIAN BASIS FUNCTIONS =   15
 NUMBER OF ELECTRONS                          =   22
 CHARGE OF MOLECULE                           =   -1
 SPIN MULTIPLICITY                            =    1
 NUMBER OF OCCUPIED ORBITALS (ALPHA)          =   11
 NUMBER OF OCCUPIED ORBITALS (BETA )          =   11
 TOTAL NUMBER OF ATOMS                        =    6
 THE NUCLEAR REPULSION ENERGY IS      167.6452141257

 THE PARAMETERS USED IN THIS CALCULATION ARE DESCRIBED IN:

  H: (PM3): J. J. P. STEWART, J. COMP. CHEM.     10, 209 (1989).                
  C: (PM3): J. J. P. STEWART, J. COMP. CHEM.     10, 209 (1989).                
 CL: (PM3): J. J. P. STEWART, J. COMP. CHEM.     10, 209 (1989).                
 BR: (PM3): J. J. P. STEWART, J. COMP. CHEM.     10, 209 (1989).                

 THERE ARE    3 HEAVY AND    3 LIGHT ATOMS,
 YIELDING A TOTAL OF       393 MOPAC 2E- INTEGRALS.

     $CONTRL OPTIONS
     ---------------
 SCFTYP=RHF          RUNTYP=SURFACE      EXETYP=RUN     
 MPLEVL=       0     CITYP =NONE         CCTYP =NONE         VBTYP =NONE    
 DFTTYP=NONE         TDDFT =NONE    
 MULT  =       1     ICHARG=      -1     NZVAR =       1     COORD =UNIQUE  
 PP    =NONE         RELWFN=NONE         LOCAL =NONE         NUMGRD=       F
 ISPHER=      -1     NOSYM =       0     MAXIT =      30     UNITS =ANGS    
 PLTORB=       F     MOLPLT=       F     AIMPAC=       F     FRIEND=        
 NPRINT=       7     IREST =       0     GEOM  =INPUT   
 NORMF =       0     NORMP =       0     ITOL  =      20     ICUT  =       9
 INTTYP=BEST         GRDTYP=BEST         QMTTOL= 1.0E-06

     $SYSTEM OPTIONS
     ---------------
  REPLICATED MEMORY=     1000000 WORDS (ON EVERY NODE).
 DISTRIBUTED MEMDDI=           0 MILLION WORDS IN AGGREGATE,
 MEMDDI DISTRIBUTED OVER   1 PROCESSORS IS           0 WORDS/PROCESSOR.
 TOTAL MEMORY REQUESTED ON EACH PROCESSOR=     1000000 WORDS.
 TIMLIM=      525600.00 MINUTES, OR     365.0 DAYS.
 PARALL= F  BALTYP=  DLB     KDIAG=    0  COREFL= F
 MXSEQ2=     300 MXSEQ3=     150  mem10=         0

          ----------------
          PROPERTIES INPUT
          ----------------

     MOMENTS            FIELD           POTENTIAL          DENSITY
 IEMOM =       1   IEFLD =       0   IEPOT =       0   IEDEN =       0
 WHERE =COMASS     WHERE =NUCLEI     WHERE =NUCLEI     WHERE =NUCLEI  
 OUTPUT=BOTH       OUTPUT=BOTH       OUTPUT=BOTH       OUTPUT=BOTH    
 IEMINT=       0   IEFINT=       0                     IEDINT=       0
                                                       MORB  =       0
          EXTRAPOLATION IN EFFECT
 ORBITAL PRINTING OPTION: NPREO=     1    15     2     1

     -------------------------------
     INTEGRAL TRANSFORMATION OPTIONS
     -------------------------------
     NWORD  =            0
     CUTOFF = 1.0E-09     MPTRAN =       0
     DIRTRF =       F     AOINTS =DUP     

          ----------------------
          INTEGRAL INPUT OPTIONS
          ----------------------
 NOPK  =       1 NORDER=       0 SCHWRZ=       T
 
 
 -----------------------------------------------
  STATISTICS ON AUTOMATIC COORDINATE GENERATION 
 -----------------------------------------------
  NUMBER OF USER SPECIFIED BONDS                                 2
  NUMBER OF BONDS                                                6
  NUMBER OF ANGLES                                              14
  NUMBER OF TORSIONS                                             0
  NUMBER OF EXTRA COORD.                                         0
  NUMBER OF EXTRA COORD. FOR CONSTRAINTS                         0
  NUMBER OF CONSTRAINED COORD.                                   0
 
  TOTAL NUMBER OF PRIMITIVES                                    20
 -----------------------------------------------

   --- ENCODED Z MATRIX ---
 COORD  TYPE   I   J   K   L   M   N
    1      1    1   3
    2      1    1   4
    3      1    1   5
    4      1    1   2
    5      1    1   6
    6      1    1   2
    7      2    2   1   5
    8      2    2   1   6
    9      2    2   1   5
   10      2    2   1   3
   11      2    2   1   3
   12      2    2   1   4
   13      2    2   1   6
   14      2    2   1   4
   15      2    3   1   5
   16      2    3   1   6
   17      2    3   1   4
   18      2    4   1   5
   19      2    4   1   6
   20      2    5   1   6

          INDEP./SYM. INTERNAL COORDINATES
          --------------------------------
 CRD  1=  -0.1232 ( 10) -0.1232 ( 11)  0.2203 ( 12)  0.2203 ( 14)  0.1444 ( 15)
          -0.4157 ( 16)  0.7361 ( 19) -0.3205 ( 20)
 CRD  2=   0.4939 (  8)  0.4939 ( 13) -0.4220 ( 16)  0.2497 ( 17) -0.2295 ( 18)
           0.4605 ( 20)
 CRD  3=  -0.2576 (  1)  0.4599 (  2) -0.2023 (  3)  0.1591 ( 12)  0.1591 ( 14)
          -0.6336 ( 15)  0.2811 ( 17)  0.3525 ( 18)
 CRD  4=  -0.4025 (  1)  0.4321 (  3)  0.1646 (  8)  0.1646 ( 13) -0.5521 ( 17)
           0.5077 ( 18)
 CRD  5=   0.1716 (  2) -0.2080 (  7) -0.2080 (  9) -0.2359 ( 10) -0.2359 ( 11)
           0.4433 ( 12)  0.4433 ( 14)  0.3502 ( 15)  0.1862 ( 16) -0.1612 ( 17)
          -0.1884 ( 18) -0.3468 ( 19)  0.1612 ( 20)
 CRD  6=  -0.2219 (  1) -0.2255 (  2) -0.2303 (  3) -0.6768 (  5)  0.1658 (  7)
           0.1658 (  9)  0.1922 ( 10)  0.1922 ( 11)  0.1805 ( 12)  0.1805 ( 14)
          -0.1791 ( 15) -0.1889 ( 16) -0.1884 ( 17) -0.1716 ( 18) -0.1802 ( 19)
          -0.1693 ( 20)
 CRD  7=  -0.2187 (  1)  0.2162 (  3)  0.3903 (  7)  0.1150 (  8)  0.3903 (  9)
          -0.3630 ( 10) -0.3630 ( 11)  0.1150 ( 13)  0.2656 ( 16)  0.2778 ( 17)
          -0.2800 ( 18) -0.2885 ( 20)
 CRD  8=   0.4961 (  1)  0.4995 (  2)  0.5039 (  3) -0.5005 (  5)
 CRD  9=  -0.1273 (  1) -0.1244 (  2) -0.1207 (  3) -0.5304 (  4) -0.3718 (  5)
          -0.5304 (  6) -0.1462 (  7) -0.1462 (  9) -0.1441 ( 10) -0.1441 ( 11)
          -0.1450 ( 12) -0.1450 ( 14)  0.1452 ( 15)  0.1451 ( 16)  0.1458 ( 17)
           0.1448 ( 18)  0.1451 ( 19)  0.1451 ( 20)
 CRD 10=  -0.3653 (  1)  0.6476 (  2) -0.2824 (  3)  0.1085 (  7)  0.1085 (  9)
           0.1401 ( 10)  0.1401 ( 11) -0.2486 ( 12) -0.2486 ( 14)  0.3450 ( 15)
          -0.1504 ( 17) -0.1946 ( 18)
 CRD 11=  -0.5019 (  1)  0.5449 (  3) -0.2247 (  7) -0.2213 (  8) -0.2247 (  9)
           0.2046 ( 10)  0.2046 ( 11) -0.2213 ( 13)  0.2991 ( 17) -0.2730 ( 18)
 CRD 12=   0.1290 (  1)  0.1303 (  2)  0.1319 (  3) -0.4671 (  4)  0.3907 (  5)
          -0.4671 (  6)  0.1725 (  7)  0.1725 (  9)  0.1738 ( 10)  0.1738 ( 11)
           0.1732 ( 12)  0.1732 ( 14) -0.1734 ( 15) -0.1738 ( 16) -0.1723 ( 17)
          -0.1742 ( 18) -0.1732 ( 19) -0.1725 ( 20)

 THE DETERMINANT OF THE G MATRIX IS 10**(    -7)


                     --------------------
                     INTERNAL COORDINATES
                     --------------------

                 - - ATOMS - -         COORDINATE      COORDINATE
 NO.   TYPE    I  J  K  L  M  N        (BOHR,RAD)       (ANG,DEG)
 ----------------------------------------------------------------
   1 STRETCH   1  3                     2.0963213       1.1093255
   2 STRETCH   1  4                     2.0963989       1.1093666
   3 STRETCH   1  5                     2.0967415       1.1095479
   4 STRETCH   1  2                     3.6532770       1.9332311
   5 STRETCH   1  6                     6.9307556       3.6675982
   6 STRETCH   1  2                     3.6532770       1.9332311
   7 BEND      2  1  5                  1.9109773     109.4909312
   8 BEND      2  1  6                  3.1286574     179.2588636
   9 BEND      2  1  5                  1.9109773     109.4909312
  10 BEND      2  1  3                  1.9111821     109.5026683
  11 BEND      2  1  3                  1.9111821     109.5026683
  12 BEND      2  1  4                  1.9111276     109.4995439
  13 BEND      2  1  6                  3.1286574     179.2588636
  14 BEND      2  1  4                  1.9111276     109.4995439
  15 BEND      3  1  5                  1.9101314     109.4424677
  16 BEND      3  1  6                  1.2411222      71.1110617
  17 BEND      3  1  4                  1.9102798     109.4509696
  18 BEND      4  1  5                  1.9101006     109.4407029
  19 BEND      4  1  6                  1.2314323      70.5558749
  20 BEND      5  1  6                  1.2189786      69.8423309

     ------------------------------------------
     THE POINT GROUP IS C1 , NAXIS= 0, ORDER= 1
     ------------------------------------------

     DIMENSIONS OF THE SYMMETRY SUBSPACES ARE
 A   =   15

 ..... DONE SETTING UP THE RUN .....
 STEP CPU TIME =     0.29 TOTAL CPU TIME =          0.3 (      0.0 MIN)
 TOTAL WALL CLOCK TIME=          0.3 SECONDS, CPU UTILIZATION IS   100.00%

     ---------------------------
     POTENTIAL SURFACE MAP INPUT
     ---------------------------
 JOB 1 IS RUNTYP=ENERGY   SCFTYP=RHF       CITYP=NONE    
          MPLEVL=       0  CCTYP=NONE     DFTTYP=NONE    
 COORD 1 LYING ALONG ATOM PAIR    1    6
 HAS ORIGIN= 0.000, DISPLACEMENT=-0.100  AND 20 STEPS.
 GROUP 1 CONTAINS    1 ATOMS:
     6

 ATOM      ATOMIC                      COORDINATES (BOHR)
           CHARGE         X                   Y                   Z
 C           6.0    -2.9226124181        2.0636185731        0.0008881712
 BR         35.0     0.7306247586        2.0802859563        0.0045542396
 H           1.0    -3.6298423690        3.8582157546       -0.8199710033
 H           1.0    -3.6234928897        1.8713767484        1.9672803423
 H           1.0    -3.6137041091        0.4509075179       -1.1471014691
 CL         17.0    -9.8522943068        1.9436209729       -0.0210893420

          INTERNUCLEAR DISTANCES (ANGS.)
          ------------------------------

                1 C          2 BR         3 H          4 H          5 H     

   1 C       0.0000000    1.9332311 *  1.1093255 *  1.1093666 *  1.1095479 *
   2 BR      1.9332311 *  0.0000000    2.5298076 *  2.5297926 *  2.5297981 *
   3 H       1.1093255 *  2.5298076 *  0.0000000    1.8113282 *  1.8113811 *
   4 H       1.1093666 *  2.5297926 *  1.8113282 *  0.0000000    1.8113949 *
   5 H       1.1095479 *  2.5297981 *  1.8113811 *  1.8113949 *  0.0000000  
   6 CL      3.6675982    5.6007234    3.4709669    3.4602204    3.4464069  

                6 CL    

   1 C       3.6675982  
   2 BR      5.6007234  
   3 H       3.4709669  
   4 H       3.4602204  
   5 H       3.4464069  
   6 CL      0.0000000  

  * ... LESS THAN  3.000


          ********************
          1 ELECTRON INTEGRALS
          ********************

          **************************
          1 AND 2 ELECTRON INTEGRALS
          **************************

 MOPAC ONE- AND TWO-ELECTRON INTEGRALS REQUIRE       633 WORDS.
 ...... END OF ONE- AND TWO-ELECTRON INTEGRALS......
 STEP CPU TIME =     0.06 TOTAL CPU TIME =          0.4 (      0.0 MIN)
 TOTAL WALL CLOCK TIME=          0.4 SECONDS, CPU UTILIZATION IS   100.00%
 ...... END OF ONE-ELECTRON INTEGRALS ......
 STEP CPU TIME =     0.01 TOTAL CPU TIME =          0.4 (      0.0 MIN)
 TOTAL WALL CLOCK TIME=          0.4 SECONDS, CPU UTILIZATION IS   100.00%

          -------------
          GUESS OPTIONS
          -------------
          GUESS =HUCKEL            NORB  =       0          NORDER=       0
          MIX   =       F          PRTMO =       F          PUNMO =       F
          TOLZ  = 1.0E-08          TOLE  = 1.0E-05
          SYMDEN=       F          PURIFY=       F

 INITIAL GUESS ORBITALS GENERATED BY HUCKEL   ROUTINE.

 SYMMETRIES FOR INITIAL GUESS ORBITALS FOLLOW.   BOTH SET(S).
    11 ORBITALS ARE OCCUPIED (    0 CORE ORBITALS).
     1=A        2=A        3=A        4=A        5=A        6=A        7=A   
     8=A        9=A       10=A       11=A       12=A       13=A       14=A   
    15=A   
 ...... END OF INITIAL ORBITAL SELECTION ......
 STEP CPU TIME =     0.08 TOTAL CPU TIME =          0.4 (      0.0 MIN)
 TOTAL WALL CLOCK TIME=          0.4 SECONDS, CPU UTILIZATION IS   100.00%

          --------------------------
               R-PM3 SCF CALCULATION
          --------------------------

     NUCLEAR ENERGY =        27.6097560156
     MAXIT =   30     NPUNCH=    2
     EXTRAP=T  DAMP=F  SHIFT=F  RSTRCT=F  DIIS=F  DEM=F  SOSCF=F
     DENSITY MATRIX CONV=  1.00E-05
     MEMORY REQUIRED FOR RHF ITERS=      2274 WORDS.

 ITER EX DEM     TOTAL ENERGY        E CHANGE  DENSITY CHANGE    DIIS ERROR
   1  0  0      -30.6822772191   -30.6822772191   0.273701699   0.000000000
   2  1  0      -30.7624980658    -0.0802208467   0.079981597   0.000000000
   3  2  0      -30.7704948213    -0.0079967555   0.038704773   0.000000000
   4  3  0      -30.7720147322    -0.0015199109   0.020446105   0.000000000
   5  0  0      -30.7724290410    -0.0004143089   0.024233479   0.000000000
   6  1  0      -30.7726131931    -0.0001841521   0.000255025   0.000000000
   7  2  0      -30.7726133214    -0.0000001282   0.000136381   0.000000000
   8  3  0      -30.7726133547    -0.0000000333   0.000073625   0.000000000
   9  4  0      -30.7726133644    -0.0000000097   0.000041319   0.000000000
  10  5  0      -30.7726133674    -0.0000000030   0.000025377   0.000000000
  11  6  0      -30.7726133683    -0.0000000009   0.000015178   0.000000000
  12  7  0      -30.7726133686    -0.0000000003   0.000008930   0.000000000

          -----------------
          DENSITY CONVERGED
          -----------------
     TIME TO FORM FOCK OPERATORS=       0.1 SECONDS (       0.0 SEC/ITER)
     TIME TO SOLVE SCF EQUATIONS=       0.6 SECONDS (       0.1 SEC/ITER)

 FINAL R-PM3 ENERGY IS      -30.7726133686 AFTER  12 ITERATIONS

 HEAT OF FORMATION IS       -59.58981 KCAL/MOL
 

          ------------
          EIGENVECTORS
          ------------

                      1          2          3          4          5
                   -1.7330    -0.9431    -0.6276    -0.4143    -0.4141
                     A          A          A          A          A   
    1  C  1  S    0.010218   0.761939  -0.091030  -0.000321   0.000427
    2  C  1  X   -0.002711  -0.012374   0.124270  -0.002847   0.004074
    3  C  1  Y   -0.000065   0.000174   0.000463   0.496465  -0.461377
    4  C  1  Z   -0.000012   0.000030   0.000105  -0.461283  -0.496617
    5  BR 2  S    0.000753   0.161688   0.977248   0.000125  -0.000176
    6  BR 2  X   -0.001545  -0.224634   0.091016   0.000376  -0.000472
    7  BR 2  Y   -0.000011  -0.000993   0.000444   0.278366  -0.259181
    8  BR 2  Z   -0.000002  -0.000220   0.000096  -0.258625  -0.278962
    9  H  3  S    0.009933   0.337994  -0.065802   0.488074  -0.162262
   10  H  4  S    0.010065   0.337768  -0.065710  -0.383960  -0.341411
   11  H  5  S    0.010238   0.337437  -0.065575  -0.103280   0.502543
   12  CL 6  S    0.999788  -0.018529   0.002668   0.000100  -0.000131
   13  CL 6  X    0.001995   0.012552  -0.004286  -0.000386   0.000511
   14  CL 6  Y    0.000035   0.000193  -0.000068   0.005083  -0.004843
   15  CL 6  Z    0.000006   0.000035  -0.000012  -0.004735  -0.005226

                      6          7          8          9         10
                   -0.3877    -0.3034    -0.3034    -0.1422    -0.1415
                     A          A          A          A          A   
    1  C  1  S   -0.013013   0.000118   0.000159  -0.027536   0.000106
    2  C  1  X   -0.591477   0.000449   0.000676   0.009355  -0.000009
    3  C  1  Y   -0.004734  -0.187978  -0.175155   0.000835  -0.007118
    4  C  1  Z   -0.001010   0.174589  -0.188606   0.000150  -0.008122
    5  BR 2  S    0.036875  -0.000032  -0.000043   0.003336  -0.000006
    6  BR 2  X    0.753664  -0.002223  -0.003218  -0.023004   0.000042
    7  BR 2  Y    0.001764   0.677432   0.628920  -0.000286   0.001590
    8  BR 2  Z    0.000417  -0.629154   0.677192  -0.000055   0.001815
    9  H  3  S    0.162330  -0.218314  -0.072514   0.002862  -0.000304
   10  H  4  S    0.163277   0.172002  -0.152956   0.002782  -0.000681
   11  H  5  S    0.164643   0.046441   0.225667   0.002678   0.000890
   12  CL 6  S   -0.005319  -0.000046  -0.000061  -0.001810   0.000001
   13  CL 6  X    0.021037   0.000319   0.000426   0.999110  -0.014958
   14  CL 6  Y    0.000312  -0.003796  -0.003623   0.018817   0.658702
   15  CL 6  Z    0.000056   0.003535  -0.003911   0.003406   0.752173

                     11         12         13         14         15
                   -0.1415     0.1098     0.2631     0.2669     0.2672
                     A          A          A          A          A   
    1  C  1  S    0.000085   0.340108   0.541727   0.020551  -0.023795
    2  C  1  X   -0.000011   0.685721  -0.404760  -0.013220   0.014801
    3  C  1  Y   -0.007894   0.003516   0.037927  -0.509966   0.461504
    4  C  1  Z    0.006911   0.000764   0.004472   0.462715   0.510191
    5  BR 2  S   -0.000005  -0.130685   0.019824   0.000727  -0.000839
    6  BR 2  X    0.000035   0.609520  -0.034347  -0.001297   0.001509
    7  BR 2  Y    0.001766   0.002782  -0.001901   0.021782  -0.019662
    8  BR 2  Z   -0.001546   0.000609  -0.000249  -0.019774  -0.021746
    9  H  3  S   -0.000935  -0.091727  -0.452288   0.546697  -0.160157
   10  H  4  S    0.000666  -0.091600  -0.424173  -0.453110  -0.379786
   11  H  5  S    0.000193  -0.091427  -0.393301  -0.141899   0.595934
   12  CL 6  S    0.000001   0.002157   0.006049   0.000305  -0.000363
   13  CL 6  X   -0.011909   0.018182   0.021360   0.001171  -0.001408
   14  CL 6  Y    0.752089   0.000292   0.000635  -0.004761   0.004447
   15  CL 6  Z   -0.658865   0.000053   0.000100   0.004340   0.004937
 ...... END OF RHF CALCULATION ......
 STEP CPU TIME =     0.75 TOTAL CPU TIME =          1.2 (      0.0 MIN)
 TOTAL WALL CLOCK TIME=          1.2 SECONDS, CPU UTILIZATION IS   100.00%

     ----------------------------------------------------------------
     PROPERTY VALUES FOR THE RHF   SELF-CONSISTENT FIELD WAVEFUNCTION
     ----------------------------------------------------------------

                    -------------
                    MOPAC CHARGES
                    -------------
         ATOM NO.   TYPE          CHARGE        ATOM  ELECTRON DENSITY
           1         C             -0.0130          4.0130
           2         BR            -0.2162          7.2162
           3         H              0.0750          0.9250
           4         H              0.0757          0.9243
           5         H              0.0766          0.9234
           6         CL            -0.9982          7.9982

          ---------------------
          ELECTROSTATIC MOMENTS
          ---------------------

 POINT   1           X           Y           Z (ANGS)      CHARGE
                -1.367547    1.080117   -0.001513       -1.00 (A.U.)
         DX          DY          DZ         /D/  (DEBYE)
    15.917785    0.230490    0.042759   15.919511
 ...... END OF PROPERTY EVALUATION ......
 STEP CPU TIME =     0.03 TOTAL CPU TIME =          1.2 (      0.0 MIN)
 TOTAL WALL CLOCK TIME=          1.2 SECONDS, CPU UTILIZATION IS   100.00%
 ---- SURFACE MAPPING GEOMETRY ----
 COORD 1= 0.000 COORD 2= 0.000
 HAS ENERGY VALUE     -30.772613
 C     -1.54658   1.09202   0.00047
 BR     0.38663   1.10084   0.00241
 H     -1.92083   2.04168  -0.43391
 H     -1.91747   0.99029   1.04104
 H     -1.91229   0.23861  -0.60702
 CL    -5.21361   1.02852  -0.01116
 ----------------------------------

 ATOM      ATOMIC                      COORDINATES (BOHR)
           CHARGE         X                   Y                   Z
 C           6.0    -2.9226124181        2.0636185731        0.0008881712
 BR         35.0     0.7306247586        2.0802859563        0.0045542396
 H           1.0    -3.6298423690        3.8582157546       -0.8199710033
 H           1.0    -3.6234928897        1.8713767484        1.9672803423
 H           1.0    -3.6137041091        0.4509075179       -1.1471014691
 CL         17.0    -9.6633509843        1.9468928035       -0.0204901075

          INTERNUCLEAR DISTANCES (ANGS.)
          ------------------------------

                1 C          2 BR         3 H          4 H          5 H     

   1 C       0.0000000    1.9332311 *  1.1093255 *  1.1093666 *  1.1095479 *
   2 BR      1.9332311 *  0.0000000    2.5298076 *  2.5297926 *  2.5297981 *
   3 H       1.1093255 *  2.5298076 *  0.0000000    1.8113282 *  1.8113811 *
   4 H       1.1093666 *  2.5297926 *  1.8113282 *  0.0000000    1.8113949 *
   5 H       1.1095479 *  2.5297981 *  1.8113811 *  1.8113949 *  0.0000000  
   6 CL      3.5675982    5.5007244    3.3757839    3.3650356    3.3512195  

                6 CL    

   1 C       3.5675982  
   2 BR      5.5007244  
   3 H       3.3757839  
   4 H       3.3650356  
   5 H       3.3512195  
   6 CL      0.0000000  

  * ... LESS THAN  3.000


          ********************
          1 ELECTRON INTEGRALS
          ********************

          **************************
          1 AND 2 ELECTRON INTEGRALS
          **************************

 MOPAC ONE- AND TWO-ELECTRON INTEGRALS REQUIRE       633 WORDS.
 ...... END OF ONE- AND TWO-ELECTRON INTEGRALS......
 STEP CPU TIME =     0.04 TOTAL CPU TIME =          1.3 (      0.0 MIN)
 TOTAL WALL CLOCK TIME=          1.3 SECONDS, CPU UTILIZATION IS   100.00%
 ...... END OF ONE-ELECTRON INTEGRALS ......
 STEP CPU TIME =     0.01 TOTAL CPU TIME =          1.3 (      0.0 MIN)
 TOTAL WALL CLOCK TIME=          1.3 SECONDS, CPU UTILIZATION IS   100.00%

          --------------------------
               R-PM3 SCF CALCULATION
          --------------------------

     NUCLEAR ENERGY =        27.8717098983
     MAXIT =   30     NPUNCH=    2
     EXTRAP=T  DAMP=F  SHIFT=F  RSTRCT=F  DIIS=F  DEM=F  SOSCF=F
     DENSITY MATRIX CONV=  1.00E-05
     MEMORY REQUIRED FOR RHF ITERS=      2274 WORDS.

 ITER EX DEM     TOTAL ENERGY        E CHANGE  DENSITY CHANGE    DIIS ERROR
   1  0  0      -30.7731996871   -30.7731996871   0.002916832   0.000000000
   2  1  0      -30.7732135873    -0.0000139002   0.001281606   0.000000000
   3  2  0      -30.7732154671    -0.0000018798   0.000549270   0.000000000
   4  3  0      -30.7732158305    -0.0000003634   0.000265606   0.000000000
   5  0  0      -30.7732159098    -0.0000000794   0.000290912   0.000000000
   6  1  0      -30.7732159358    -0.0000000259   0.000008926   0.000000000
   7  2  0      -30.7732159359    -0.0000000001   0.000004293   0.000000000
   8  3  0      -30.7732159359    -0.0000000000   0.000002052   0.000000000

          -----------------
          DENSITY CONVERGED
          -----------------
     TIME TO FORM FOCK OPERATORS=       0.1 SECONDS (       0.0 SEC/ITER)
     TIME TO SOLVE SCF EQUATIONS=       0.4 SECONDS (       0.0 SEC/ITER)

 FINAL R-PM3 ENERGY IS      -30.7732159359 AFTER   8 ITERATIONS

 HEAT OF FORMATION IS       -59.96794 KCAL/MOL
 

          ------------
          EIGENVECTORS
          ------------

                      1          2          3          4          5
                   -1.7340    -0.9398    -0.6243    -0.4113    -0.4110
                     A          A          A          A          A   
    1  C  1  S    0.012240   0.761935  -0.091034  -0.000334   0.000443
    2  C  1  X   -0.003382  -0.011670   0.124000  -0.002910   0.004152
    3  C  1  Y   -0.000079   0.000189   0.000457   0.496221  -0.460356
    4  C  1  Z   -0.000014   0.000032   0.000104  -0.460261  -0.496375
    5  BR 2  S    0.000884   0.161715   0.977242   0.000131  -0.000183
    6  BR 2  X   -0.001828  -0.225191   0.091447   0.000452  -0.000572
    7  BR 2  Y   -0.000013  -0.000994   0.000446   0.281428  -0.261604
    8  BR 2  Z   -0.000003  -0.000220   0.000096  -0.261019  -0.282057
    9  H  3  S    0.011694   0.337788  -0.065772   0.487124  -0.161490
   10  H  4  S    0.011848   0.337550  -0.065675  -0.382774  -0.340969
   11  H  5  S    0.012050   0.337204  -0.065535  -0.103458   0.501255
   12  CL 6  S    0.999704  -0.021972   0.003186   0.000117  -0.000153
   13  CL 6  X    0.002210   0.015008  -0.005190  -0.000460   0.000608
   14  CL 6  Y    0.000038   0.000230  -0.000082   0.006266  -0.005958
   15  CL 6  Z    0.000007   0.000042  -0.000015  -0.005826  -0.006439

                      6          7          8          9         10
                   -0.3851    -0.3013    -0.3013    -0.1431    -0.1424
                     A          A          A          A          A   
    1  C  1  S   -0.011783   0.000125   0.000168  -0.032065   0.000143
    2  C  1  X   -0.589592   0.000448   0.000675   0.010475  -0.000016
    3  C  1  Y   -0.004836  -0.190343  -0.177100   0.000968  -0.008639
    4  C  1  Z   -0.001028   0.176503  -0.191006   0.000174  -0.009882
    5  BR 2  S    0.036222  -0.000033  -0.000045   0.004133  -0.000010
    6  BR 2  X    0.754882  -0.002208  -0.003192  -0.028218   0.000064
    7  BR 2  Y    0.001662   0.676761   0.627280  -0.000344   0.001973
    8  BR 2  Z    0.000398  -0.627528   0.676504  -0.000066   0.002256
    9  H  3  S    0.162507  -0.220245  -0.072963   0.002581  -0.000429
   10  H  4  S    0.163510   0.173358  -0.154413   0.002472  -0.000975
   11  H  5  S    0.164952   0.047022   0.227581   0.002332   0.001288
   12  CL 6  S   -0.006386  -0.000055  -0.000073  -0.001924   0.000002
   13  CL 6  X    0.025757   0.000389   0.000518   0.998816  -0.015465
   14  CL 6  Y    0.000382  -0.004740  -0.004516   0.019477   0.657708
   15  CL 6  Z    0.000069   0.004407  -0.004883   0.003524   0.752992

                     11         12         13         14         15
                   -0.1424     0.1124     0.2666     0.2702     0.2704
                     A          A          A          A          A   
    1  C  1  S    0.000115   0.340213   0.541125   0.023403  -0.027227
    2  C  1  X   -0.000017   0.686997  -0.405239  -0.015395   0.017385
    3  C  1  Y   -0.009606   0.003547   0.043582  -0.507031   0.463743
    4  C  1  Z    0.008386   0.000770   0.005028   0.465250   0.507426
    5  BR 2  S   -0.000008  -0.130838   0.019888   0.000834  -0.000967
    6  BR 2  X    0.000053   0.607510  -0.034524  -0.001484   0.001734
    7  BR 2  Y    0.002197   0.002770  -0.002136   0.021552  -0.019659
    8  BR 2  Z   -0.001918   0.000606  -0.000272  -0.019787  -0.021521
    9  H  3  S   -0.001337  -0.092499  -0.456178   0.543553  -0.160361
   10  H  4  S    0.000960  -0.092369  -0.423846  -0.457657  -0.374918
   11  H  5  S    0.000285  -0.092192  -0.388712  -0.140918   0.599349
   12  CL 6  S    0.000002   0.002625   0.006919   0.000386  -0.000462
   13  CL 6  X   -0.012346   0.022099   0.023653   0.001433  -0.001732
   14  CL 6  Y    0.752903   0.000358   0.000786  -0.005616   0.005304
   15  CL 6  Z   -0.657883   0.000065   0.000120   0.005180   0.005830
 ...... END OF RHF CALCULATION ......
 STEP CPU TIME =     0.48 TOTAL CPU TIME =          1.8 (      0.0 MIN)
 TOTAL WALL CLOCK TIME=          1.8 SECONDS, CPU UTILIZATION IS   100.00%

     ----------------------------------------------------------------
     PROPERTY VALUES FOR THE RHF   SELF-CONSISTENT FIELD WAVEFUNCTION
     ----------------------------------------------------------------

                    -------------
                    MOPAC CHARGES
                    -------------
         ATOM NO.   TYPE          CHARGE        ATOM  ELECTRON DENSITY
           1         C             -0.0108          4.0108
           2         BR            -0.2210          7.2210
           3         H              0.0756          0.9244
           4         H              0.0764          0.9236
           5         H              0.0773          0.9227
           6         CL            -0.9975          7.9975

          ---------------------
          ELECTROSTATIC MOMENTS
          ---------------------

 POINT   1           X           Y           Z (ANGS)      CHARGE
                -1.340362    1.080588   -0.001427       -1.00 (A.U.)
         DX          DY          DZ         /D/  (DEBYE)
    15.513392    0.223832    0.041534   15.515062
 ...... END OF PROPERTY EVALUATION ......
 STEP CPU TIME =     0.01 TOTAL CPU TIME =          1.8 (      0.0 MIN)
 TOTAL WALL CLOCK TIME=          1.8 SECONDS, CPU UTILIZATION IS   100.00%
 ---- SURFACE MAPPING GEOMETRY ----
 COORD 1=-0.100 COORD 2= 0.000
 HAS ENERGY VALUE     -30.773216
 C     -1.54658   1.09202   0.00047
 BR     0.38663   1.10084   0.00241
 H     -1.92083   2.04168  -0.43391
 H     -1.91747   0.99029   1.04104
 H     -1.91229   0.23861  -0.60702
 CL    -5.11363   1.03025  -0.01084
 ----------------------------------

 ATOM      ATOMIC                      COORDINATES (BOHR)
           CHARGE         X                   Y                   Z
 C           6.0    -2.9226124181        2.0636185731        0.0008881712
 BR         35.0     0.7306247586        2.0802859563        0.0045542396
 H           1.0    -3.6298423690        3.8582157546       -0.8199710033
 H           1.0    -3.6234928897        1.8713767484        1.9672803423
 H           1.0    -3.6137041091        0.4509075179       -1.1471014691
 CL         17.0    -9.4744076618        1.9501646341       -0.0198908730

          INTERNUCLEAR DISTANCES (ANGS.)
          ------------------------------

                1 C          2 BR         3 H          4 H          5 H     

   1 C       0.0000000    1.9332311 *  1.1093255 *  1.1093666 *  1.1095479 *
   2 BR      1.9332311 *  0.0000000    2.5298076 *  2.5297926 *  2.5297981 *
   3 H       1.1093255 *  2.5298076 *  0.0000000    1.8113282 *  1.8113811 *
   4 H       1.1093666 *  2.5297926 *  1.8113282 *  0.0000000    1.8113949 *
   5 H       1.1095479 *  2.5297981 *  1.8113811 *  1.8113949 *  0.0000000  
   6 CL      3.4675982    5.4007254    3.2808875    3.2701382    3.2563206  

                6 CL    

   1 C       3.4675982  
   2 BR      5.4007254  
   3 H       3.2808875  
   4 H       3.2701382  
   5 H       3.2563206  
   6 CL      0.0000000  

  * ... LESS THAN  3.000


          ********************
          1 ELECTRON INTEGRALS
          ********************

          **************************
          1 AND 2 ELECTRON INTEGRALS
          **************************

 MOPAC ONE- AND TWO-ELECTRON INTEGRALS REQUIRE       633 WORDS.
 ...... END OF ONE- AND TWO-ELECTRON INTEGRALS......
 STEP CPU TIME =     0.04 TOTAL CPU TIME =          1.8 (      0.0 MIN)
 TOTAL WALL CLOCK TIME=          1.8 SECONDS, CPU UTILIZATION IS   100.00%
 ...... END OF ONE-ELECTRON INTEGRALS ......
 STEP CPU TIME =     0.01 TOTAL CPU TIME =          1.8 (      0.0 MIN)
 TOTAL WALL CLOCK TIME=          1.8 SECONDS, CPU UTILIZATION IS   100.00%

          --------------------------
               R-PM3 SCF CALCULATION
          --------------------------

     NUCLEAR ENERGY =        28.1454993402
     MAXIT =   30     NPUNCH=    2
     EXTRAP=T  DAMP=F  SHIFT=F  RSTRCT=F  DIIS=F  DEM=F  SOSCF=F
     DENSITY MATRIX CONV=  1.00E-05
     MEMORY REQUIRED FOR RHF ITERS=      2274 WORDS.

 ITER EX DEM     TOTAL ENERGY        E CHANGE  DENSITY CHANGE    DIIS ERROR
   1  0  0      -30.7738704888   -30.7738704888   0.003206168   0.000000000
   2  1  0      -30.7738879404    -0.0000174516   0.001438924   0.000000000
   3  2  0      -30.7738903759    -0.0000024356   0.000647011   0.000000000
   4  3  0      -30.7738908601    -0.0000004842   0.000306652   0.000000000
   5  0  0      -30.7738909676    -0.0000001075   0.000324481   0.000000000
   6  1  0      -30.7738910028    -0.0000000352   0.000010912   0.000000000
   7  2  0      -30.7738910029    -0.0000000001   0.000005279   0.000000000
   8  3  0      -30.7738910029    -0.0000000000   0.000002539   0.000000000

          -----------------
          DENSITY CONVERGED
          -----------------
     TIME TO FORM FOCK OPERATORS=       0.1 SECONDS (       0.0 SEC/ITER)
     TIME TO SOLVE SCF EQUATIONS=       0.3 SECONDS (       0.0 SEC/ITER)

 FINAL R-PM3 ENERGY IS      -30.7738910029 AFTER   8 ITERATIONS

 HEAT OF FORMATION IS       -60.39156 KCAL/MOL
 

          ------------
          EIGENVECTORS
          ------------

                      1          2          3          4          5
                   -1.7352    -0.9364    -0.6207    -0.4081    -0.4079
                     A          A          A          A          A   
    1  C  1  S    0.014647   0.761914  -0.091013  -0.000347   0.000459
    2  C  1  X   -0.004218  -0.010924   0.123729  -0.002975   0.004232
    3  C  1  Y   -0.000096   0.000206   0.000450   0.495913  -0.459297
    4  C  1  Z   -0.000018   0.000035   0.000102  -0.459201  -0.496069
    5  BR 2  S    0.001036   0.161719   0.977239   0.000136  -0.000190
    6  BR 2  X   -0.002160  -0.225769   0.091877   0.000531  -0.000675
    7  BR 2  Y   -0.000016  -0.000995   0.000448   0.284626  -0.264158
    8  BR 2  Z   -0.000003  -0.000221   0.000096  -0.263540  -0.285291
    9  H  3  S    0.013747   0.337553  -0.065731   0.486110  -0.160711
   10  H  4  S    0.013927   0.337302  -0.065629  -0.381549  -0.340476
   11  H  5  S    0.014162   0.336939  -0.065483  -0.103611   0.499905
   12  CL 6  S    0.999586  -0.026025   0.003803   0.000137  -0.000178
   13  CL 6  X    0.002467   0.017928  -0.006283  -0.000549   0.000724
   14  CL 6  Y    0.000042   0.000275  -0.000100   0.007730  -0.007336
   15  CL 6  Z    0.000008   0.000050  -0.000018  -0.007175  -0.007941

                      6          7          8          9         10
                   -0.3825    -0.2991    -0.2991    -0.1440    -0.1433
                     A          A          A          A          A   
    1  C  1  S   -0.010544   0.000132   0.000176  -0.037275   0.000204
    2  C  1  X   -0.587564   0.000448   0.000676   0.011662  -0.000029
    3  C  1  Y   -0.004939  -0.192809  -0.179136   0.001112  -0.010457
    4  C  1  Z   -0.001047   0.178508  -0.193508   0.000199  -0.012051
    5  BR 2  S    0.035565  -0.000035  -0.000046   0.005119  -0.000016
    6  BR 2  X    0.756133  -0.002192  -0.003166  -0.034622   0.000109
    7  BR 2  Y    0.001555   0.676011   0.625577  -0.000412   0.002445
    8  BR 2  Z    0.000379  -0.625842   0.675736  -0.000079   0.002817
    9  H  3  S    0.162667  -0.222267  -0.073441   0.002060  -0.000594
   10  H  4  S    0.163727   0.174783  -0.155935   0.001916  -0.001381
   11  H  5  S    0.165245   0.047624   0.229587   0.001732   0.001835
   12  CL 6  S   -0.007666  -0.000065  -0.000086  -0.002029   0.000004
   13  CL 6  X    0.031553   0.000475   0.000631   0.998395  -0.016362
   14  CL 6  Y    0.000468  -0.005930  -0.005641   0.020677   0.654776
   15  CL 6  Z    0.000084   0.005504  -0.006108   0.003739   0.755464

                     11         12         13         14         15
                   -0.1433     0.1150     0.2703     0.2736     0.2738
                     A          A          A          A          A   
    1  C  1  S    0.000166   0.340242   0.540368   0.027009  -0.031570
    2  C  1  X   -0.000029   0.688379  -0.405632  -0.018150   0.020664
    3  C  1  Y   -0.011717   0.003583   0.050747  -0.503471   0.466378
    4  C  1  Z    0.010148   0.000777   0.005665   0.468311   0.504126
    5  BR 2  S   -0.000013  -0.130989   0.019952   0.000971  -0.001131
    6  BR 2  X    0.000090   0.605326  -0.034705  -0.001723   0.002020
    7  BR 2  Y    0.002744   0.002757  -0.002432   0.021292  -0.019668
    8  BR 2  Z   -0.002376   0.000604  -0.000298  -0.019818  -0.021271
    9  H  3  S   -0.001892  -0.093314  -0.461129   0.539527  -0.160358
   10  H  4  S    0.001362  -0.093181  -0.423371  -0.463213  -0.368852
   11  H  5  S    0.000417  -0.093001  -0.382923  -0.139826   0.603508
   12  CL 6  S    0.000004   0.003197   0.007881   0.000494  -0.000592
   13  CL 6  X   -0.013168   0.026853   0.025972   0.001763  -0.002140
   14  CL 6  Y    0.755364   0.000438   0.000988  -0.006600   0.006317
   15  CL 6  Z   -0.654975   0.000080   0.000145   0.006174   0.006861
 ...... END OF RHF CALCULATION ......
 STEP CPU TIME =     0.33 TOTAL CPU TIME =          2.1 (      0.0 MIN)
 TOTAL WALL CLOCK TIME=          2.1 SECONDS, CPU UTILIZATION IS   100.00%

     ----------------------------------------------------------------
     PROPERTY VALUES FOR THE RHF   SELF-CONSISTENT FIELD WAVEFUNCTION
     ----------------------------------------------------------------

                    -------------
                    MOPAC CHARGES
                    -------------
         ATOM NO.   TYPE          CHARGE        ATOM  ELECTRON DENSITY
           1         C             -0.0086          4.0086
           2         BR            -0.2262          7.2262
           3         H              0.0763          0.9237
           4         H              0.0771          0.9229
           5         H              0.0781          0.9219
           6         CL            -0.9967          7.9967

          ---------------------
          ELECTROSTATIC MOMENTS
          ---------------------

 POINT   1           X           Y           Z (ANGS)      CHARGE
                -1.313177    1.081059   -0.001341       -1.00 (A.U.)
         DX          DY          DZ         /D/  (DEBYE)
    15.102290    0.217094    0.040293   15.103904
 ...... END OF PROPERTY EVALUATION ......
 STEP CPU TIME =     0.01 TOTAL CPU TIME =          2.2 (      0.0 MIN)
 TOTAL WALL CLOCK TIME=          2.2 SECONDS, CPU UTILIZATION IS   100.00%
 ---- SURFACE MAPPING GEOMETRY ----
 COORD 1=-0.200 COORD 2= 0.000
 HAS ENERGY VALUE     -30.773891
 C     -1.54658   1.09202   0.00047
 BR     0.38663   1.10084   0.00241
 H     -1.92083   2.04168  -0.43391
 H     -1.91747   0.99029   1.04104
 H     -1.91229   0.23861  -0.60702
 CL    -5.01364   1.03198  -0.01053
 ----------------------------------

 ATOM      ATOMIC                      COORDINATES (BOHR)
           CHARGE         X                   Y                   Z
 C           6.0    -2.9226124181        2.0636185731        0.0008881712
 BR         35.0     0.7306247586        2.0802859563        0.0045542396
 H           1.0    -3.6298423690        3.8582157546       -0.8199710033
 H           1.0    -3.6234928897        1.8713767484        1.9672803423
 H           1.0    -3.6137041091        0.4509075179       -1.1471014691
 CL         17.0    -9.2854643393        1.9534364647       -0.0192916386

          INTERNUCLEAR DISTANCES (ANGS.)
          ------------------------------

                1 C          2 BR         3 H          4 H          5 H     

   1 C       0.0000000    1.9332311 *  1.1093255 *  1.1093666 *  1.1095479 *
   2 BR      1.9332311 *  0.0000000    2.5298076 *  2.5297926 *  2.5297981 *
   3 H       1.1093255 *  2.5298076 *  0.0000000    1.8113282 *  1.8113811 *
   4 H       1.1093666 *  2.5297926 *  1.8113282 *  0.0000000    1.8113949 *
   5 H       1.1095479 *  2.5297981 *  1.8113811 *  1.8113949 *  0.0000000  
   6 CL      3.3675982    5.3007265    3.1863032    3.1755539    3.1617361  

                6 CL    

   1 C       3.3675982  
   2 BR      5.3007265  
   3 H       3.1863032  
   4 H       3.1755539  
   5 H       3.1617361  
   6 CL      0.0000000  

  * ... LESS THAN  3.000


          ********************
          1 ELECTRON INTEGRALS
          ********************

          **************************
          1 AND 2 ELECTRON INTEGRALS
          **************************

 MOPAC ONE- AND TWO-ELECTRON INTEGRALS REQUIRE       633 WORDS.
 ...... END OF ONE- AND TWO-ELECTRON INTEGRALS......
 STEP CPU TIME =     0.03 TOTAL CPU TIME =          2.2 (      0.0 MIN)
 TOTAL WALL CLOCK TIME=          2.2 SECONDS, CPU UTILIZATION IS   100.00%
 ...... END OF ONE-ELECTRON INTEGRALS ......
 STEP CPU TIME =     0.00 TOTAL CPU TIME =          2.2 (      0.0 MIN)
 TOTAL WALL CLOCK TIME=          2.2 SECONDS, CPU UTILIZATION IS   100.00%

          --------------------------
               R-PM3 SCF CALCULATION
          --------------------------

     NUCLEAR ENERGY =        28.4319034406
     MAXIT =   30     NPUNCH=    2
     EXTRAP=T  DAMP=F  SHIFT=F  RSTRCT=F  DIIS=F  DEM=F  SOSCF=F
     DENSITY MATRIX CONV=  1.00E-05
     MEMORY REQUIRED FOR RHF ITERS=      2274 WORDS.

 ITER EX DEM     TOTAL ENERGY        E CHANGE  DENSITY CHANGE    DIIS ERROR
   1  0  0      -30.7746209803   -30.7746209803   0.003501315   0.000000000
   2  1  0      -30.7746430700    -0.0000220897   0.001659283   0.000000000
   3  2  0      -30.7746462681    -0.0000031981   0.000790533   0.000000000
   4  3  0      -30.7746469240    -0.0000006560   0.000383401   0.000000000
   5  0  0      -30.7746470727    -0.0000001487   0.000406828   0.000000000
   6  1  0      -30.7746471220    -0.0000000493   0.000013322   0.000000000
   7  2  0      -30.7746471221    -0.0000000001   0.000006475   0.000000000
   8  3  0      -30.7746471221    -0.0000000000   0.000003131   0.000000000

          -----------------
          DENSITY CONVERGED
          -----------------
     TIME TO FORM FOCK OPERATORS=       0.1 SECONDS (       0.0 SEC/ITER)
     TIME TO SOLVE SCF EQUATIONS=       0.3 SECONDS (       0.0 SEC/ITER)

 FINAL R-PM3 ENERGY IS      -30.7746471221 AFTER   8 ITERATIONS

 HEAT OF FORMATION IS       -60.86605 KCAL/MOL
 

          ------------
          EIGENVECTORS
          ------------

                      1          2          3          4          5
                   -1.7366    -0.9327    -0.6168    -0.4048    -0.4046
                     A          A          A          A          A   
    1  C  1  S    0.017507   0.761869  -0.090946  -0.000359   0.000475
    2  C  1  X   -0.005257  -0.010138   0.123470  -0.003040   0.004311
    3  C  1  Y   -0.000117   0.000224   0.000443   0.495536  -0.458198
    4  C  1  Z   -0.000021   0.000039   0.000101  -0.458104  -0.495693
    5  BR 2  S    0.001211   0.161684   0.977239   0.000142  -0.000197
    6  BR 2  X   -0.002549  -0.226364   0.092299   0.000610  -0.000779
    7  BR 2  Y   -0.000019  -0.000995   0.000450   0.287937  -0.266822
    8  BR 2  Z   -0.000004  -0.000221   0.000097  -0.266170  -0.288639
    9  H  3  S    0.016136   0.337283  -0.065673   0.485043  -0.159929
   10  H  4  S    0.016345   0.337017  -0.065566  -0.380295  -0.339935
   11  H  5  S    0.016618   0.336636  -0.065413  -0.103737   0.498503
   12  CL 6  S    0.999423  -0.030786   0.004535   0.000159  -0.000207
   13  CL 6  X    0.002777   0.021391  -0.007605  -0.000654   0.000860
   14  CL 6  Y    0.000046   0.000328  -0.000122   0.009547  -0.009042
   15  CL 6  Z    0.000008   0.000060  -0.000022  -0.008845  -0.009803

                      6          7          8          9         10
                   -0.3797    -0.2968    -0.2967    -0.1450    -0.1444
                     A          A          A          A          A   
    1  C  1  S   -0.009322   0.000138   0.000184  -0.043254   0.000320
    2  C  1  X   -0.585370   0.000450   0.000679   0.012901  -0.000056
    3  C  1  Y   -0.005039  -0.195354  -0.181242   0.001250  -0.012470
    4  C  1  Z   -0.001065   0.180580  -0.196091   0.000223  -0.014861
    5  BR 2  S    0.034917  -0.000036  -0.000048   0.006338  -0.000032
    6  BR 2  X    0.757408  -0.002178  -0.003141  -0.042480   0.000209
    7  BR 2  Y    0.001448   0.675191   0.623817  -0.000488   0.002992
    8  BR 2  Z    0.000359  -0.624100   0.674895  -0.000094   0.003565
    9  H  3  S    0.162797  -0.224366  -0.073942   0.001220  -0.000779
   10  H  4  S    0.163911   0.176265  -0.157513   0.001034  -0.001964
   11  H  5  S    0.165504   0.048244   0.231670   0.000795   0.002581
   12  CL 6  S   -0.009196  -0.000078  -0.000103  -0.002114   0.000009
   13  CL 6  X    0.038662   0.000580   0.000770   0.997776  -0.018031
   14  CL 6  Y    0.000574  -0.007434  -0.007059   0.023119   0.641654
   15  CL 6  Z    0.000103   0.006888  -0.007655   0.004177   0.766516

                     11         12         13         14         15
                   -0.1444     0.1179     0.2742     0.2771     0.2774
                     A          A          A          A          A   
    1  C  1  S    0.000269   0.340157   0.539378   0.031658  -0.037177
    2  C  1  X   -0.000054   0.689892  -0.405868  -0.021706   0.024903
    3  C  1  Y   -0.014464   0.003625   0.060002  -0.499011   0.469541
    4  C  1  Z    0.012085   0.000784   0.006380   0.472110   0.500072
    5  BR 2  S   -0.000027  -0.131143   0.020014   0.001148  -0.001343
    6  BR 2  X    0.000177   0.602927  -0.034881  -0.002033   0.002393
    7  BR 2  Y    0.003476   0.002741  -0.002813   0.020992  -0.019694
    8  BR 2  Z   -0.002904   0.000600  -0.000326  -0.019876  -0.020987
    9  H  3  S   -0.002661  -0.094176  -0.467545   0.534246  -0.160053
   10  H  4  S    0.001887  -0.094040  -0.422638  -0.470163  -0.361108
   11  H  5  S    0.000639  -0.093857  -0.375468  -0.138546   0.608668
   12  CL 6  S    0.000007   0.003896   0.008936   0.000638  -0.000769
   13  CL 6  X   -0.015033   0.032608   0.028237   0.002181  -0.002659
   14  CL 6  Y    0.766388   0.000535   0.001267  -0.007719   0.007509
   15  CL 6  Z   -0.641901   0.000098   0.000177   0.007349   0.008040
 ...... END OF RHF CALCULATION ......
 STEP CPU TIME =     0.34 TOTAL CPU TIME =          2.5 (      0.0 MIN)
 TOTAL WALL CLOCK TIME=          2.5 SECONDS, CPU UTILIZATION IS   100.00%

     ----------------------------------------------------------------
     PROPERTY VALUES FOR THE RHF   SELF-CONSISTENT FIELD WAVEFUNCTION
     ----------------------------------------------------------------

                    -------------
                    MOPAC CHARGES
                    -------------
         ATOM NO.   TYPE          CHARGE        ATOM  ELECTRON DENSITY
           1         C             -0.0062          4.0062
           2         BR            -0.2319          7.2319
           3         H              0.0770          0.9230
           4         H              0.0778          0.9222
           5         H              0.0789          0.9211
           6         CL            -0.9956          7.9956

          ---------------------
          ELECTROSTATIC MOMENTS
          ---------------------

 POINT   1           X           Y           Z (ANGS)      CHARGE
                -1.285991    1.081529   -0.001255       -1.00 (A.U.)
         DX          DY          DZ         /D/  (DEBYE)
    14.682656    0.210256    0.039034   14.684213
 ...... END OF PROPERTY EVALUATION ......
 STEP CPU TIME =     0.01 TOTAL CPU TIME =          2.5 (      0.0 MIN)
 TOTAL WALL CLOCK TIME=          2.5 SECONDS, CPU UTILIZATION IS   100.00%
 ---- SURFACE MAPPING GEOMETRY ----
 COORD 1=-0.300 COORD 2= 0.000
 HAS ENERGY VALUE     -30.774647
 C     -1.54658   1.09202   0.00047
 BR     0.38663   1.10084   0.00241
 H     -1.92083   2.04168  -0.43391
 H     -1.91747   0.99029   1.04104
 H     -1.91229   0.23861  -0.60702
 CL    -4.91366   1.03371  -0.01021
 ----------------------------------

 ATOM      ATOMIC                      COORDINATES (BOHR)
           CHARGE         X                   Y                   Z
 C           6.0    -2.9226124181        2.0636185731        0.0008881712
 BR         35.0     0.7306247586        2.0802859563        0.0045542396
 H           1.0    -3.6298423690        3.8582157546       -0.8199710033
 H           1.0    -3.6234928897        1.8713767484        1.9672803423
 H           1.0    -3.6137041091        0.4509075179       -1.1471014691
 CL         17.0    -9.0965210167        1.9567082953       -0.0186924041

          INTERNUCLEAR DISTANCES (ANGS.)
          ------------------------------

                1 C          2 BR         3 H          4 H          5 H     

   1 C       0.0000000    1.9332311 *  1.1093255 *  1.1093666 *  1.1095479 *
   2 BR      1.9332311 *  0.0000000    2.5298076 *  2.5297926 *  2.5297981 *
   3 H       1.1093255 *  2.5298076 *  0.0000000    1.8113282 *  1.8113811 *
   4 H       1.1093666 *  2.5297926 *  1.8113282 *  0.0000000    1.8113949 *
   5 H       1.1095479 *  2.5297981 *  1.8113811 *  1.8113949 *  0.0000000  
   6 CL      3.2675982    5.2007277    3.0920598    3.0813117    3.0674952  

                6 CL    

   1 C       3.2675982  
   2 BR      5.2007277  
   3 H       3.0920598  
   4 H       3.0813117  
   5 H       3.0674952  
   6 CL      0.0000000  

  * ... LESS THAN  3.000


          ********************
          1 ELECTRON INTEGRALS
          ********************

          **************************
          1 AND 2 ELECTRON INTEGRALS
          **************************

 MOPAC ONE- AND TWO-ELECTRON INTEGRALS REQUIRE       633 WORDS.
 ...... END OF ONE- AND TWO-ELECTRON INTEGRALS......
 STEP CPU TIME =     0.03 TOTAL CPU TIME =          2.6 (      0.0 MIN)
 TOTAL WALL CLOCK TIME=          2.6 SECONDS, CPU UTILIZATION IS   100.00%
 ...... END OF ONE-ELECTRON INTEGRALS ......
 STEP CPU TIME =     0.01 TOTAL CPU TIME =          2.6 (      0.0 MIN)
 TOTAL WALL CLOCK TIME=          2.6 SECONDS, CPU UTILIZATION IS   100.00%

          --------------------------
               R-PM3 SCF CALCULATION
          --------------------------

     NUCLEAR ENERGY =        28.7317745127
     MAXIT =   30     NPUNCH=    2
     EXTRAP=T  DAMP=F  SHIFT=F  RSTRCT=F  DIIS=F  DEM=F  SOSCF=F
     DENSITY MATRIX CONV=  1.00E-05
     MEMORY REQUIRED FOR RHF ITERS=      2274 WORDS.

 ITER EX DEM     TOTAL ENERGY        E CHANGE  DENSITY CHANGE    DIIS ERROR
   1  0  0      -30.7754516698   -30.7754516698   0.004130776   0.000000000
   2  1  0      -30.7754798751    -0.0000282053   0.002000509   0.000000000
   3  2  0      -30.7754841238    -0.0000042487   0.000987058   0.000000000
   4  3  0      -30.7754850236    -0.0000008998   0.000493260   0.000000000
   5  0  0      -30.7754852323    -0.0000002087   0.000525084   0.000000000
   6  1  0      -30.7754853026    -0.0000000704   0.000016198   0.000000000
   7  2  0      -30.7754853028    -0.0000000002   0.000007905   0.000000000
   8  3  0      -30.7754853028    -0.0000000000   0.000003841   0.000000000

          -----------------
          DENSITY CONVERGED
          -----------------
     TIME TO FORM FOCK OPERATORS=       0.1 SECONDS (       0.0 SEC/ITER)
     TIME TO SOLVE SCF EQUATIONS=       0.3 SECONDS (       0.0 SEC/ITER)

 FINAL R-PM3 ENERGY IS      -30.7754853028 AFTER   8 ITERATIONS

 HEAT OF FORMATION IS       -61.39203 KCAL/MOL
 

          ------------
          EIGENVECTORS
          ------------

                      1          2          3          4          5
                   -1.7382    -0.9289    -0.6127    -0.4013    -0.4011
                     A          A          A          A          A   
    1  C  1  S    0.020896   0.761789  -0.090811  -0.000372   0.000490
    2  C  1  X   -0.006545  -0.009313   0.123240  -0.003101   0.004386
    3  C  1  Y   -0.000143   0.000243   0.000436   0.495089  -0.457066
    4  C  1  Z   -0.000026   0.000042   0.000100  -0.456973  -0.495247
    5  BR 2  S    0.001413   0.161587   0.977242   0.000147  -0.000204
    6  BR 2  X   -0.003002  -0.226968   0.092695   0.000685  -0.000878
    7  BR 2  Y   -0.000022  -0.000995   0.000451   0.291317  -0.269559
    8  BR 2  Z   -0.000005  -0.000221   0.000097  -0.268872  -0.292059
    9  H  3  S    0.018906   0.336968  -0.065591   0.483934  -0.159152
   10  H  4  S    0.019149   0.336687  -0.065478  -0.379026  -0.339354
   11  H  5  S    0.019466   0.336284  -0.065318  -0.103838   0.497068
   12  CL 6  S    0.999198  -0.036362   0.005400   0.000185  -0.000241
   13  CL 6  X    0.003156   0.025490  -0.009201  -0.000779   0.001023
   14  CL 6  Y    0.000051   0.000391  -0.000148   0.011803  -0.011157
   15  CL 6  Z    0.000009   0.000072  -0.000027  -0.010917  -0.012115

                      6          7          8          9         10
                   -0.3767    -0.2943    -0.2942    -0.1460    -0.1456
                     A          A          A          A          A   
    1  C  1  S   -0.008158   0.000144   0.000191  -0.050090  -0.000029
    2  C  1  X   -0.582984   0.000455   0.000685   0.014177   0.000012
    3  C  1  Y   -0.005129  -0.197941  -0.183381   0.001302   0.004534
    4  C  1  Z   -0.001082   0.182684  -0.198717   0.000229  -0.022709
    5  BR 2  S    0.034305  -0.000037  -0.000049   0.007840   0.000004
    6  BR 2  X    0.758683  -0.002165  -0.003119  -0.052101  -0.000025
    7  BR 2  Y    0.001345   0.674316   0.622013  -0.000553  -0.001126
    8  BR 2  Z    0.000340  -0.622314   0.673999  -0.000107   0.005611
    9  H  3  S    0.162873  -0.226511  -0.074457  -0.000053   0.002252
   10  H  4  S    0.164037   0.177781  -0.159125  -0.000278  -0.003757
   11  H  5  S    0.165696   0.048874   0.233798  -0.000567   0.001513
   12  CL 6  S   -0.011021  -0.000093  -0.000122  -0.002160  -0.000001
   13  CL 6  X    0.047377   0.000708   0.000938   0.996797   0.000978
   14  CL 6  Y    0.000704  -0.009339  -0.008853   0.029583  -0.209212
   15  CL 6  Z    0.000127   0.008640  -0.009615   0.005330   0.977568

                     11         12         13         14         15
                   -0.1456     0.1209     0.2783     0.2808     0.2811
                     A          A          A          A          A   
    1  C  1  S    0.000820   0.339912   0.538020   0.037768  -0.044555
    2  C  1  X   -0.000179   0.691564  -0.405826  -0.026385   0.030491
    3  C  1  Y   -0.022790   0.003676   0.072195  -0.493223   0.473397
    4  C  1  Z   -0.005204   0.000793   0.007132   0.476949   0.494943
    5  BR 2  S   -0.000102  -0.131299   0.020069   0.001381  -0.001624
    6  BR 2  X    0.000672   0.600260  -0.035039  -0.002442   0.002886
    7  BR 2  Y    0.005632   0.002723  -0.003312   0.020635  -0.019744
    8  BR 2  Z    0.001281   0.000597  -0.000356  -0.019973  -0.020657
    9  H  3  S   -0.003114  -0.095089  -0.476007   0.527144  -0.159286
   10  H  4  S   -0.000518  -0.094951  -0.421445  -0.479055  -0.350987
   11  H  5  S    0.003410  -0.094765  -0.365666  -0.136950   0.615176
   12  CL 6  S    0.000025   0.004751   0.010078   0.000837  -0.001012
   13  CL 6  X   -0.030002   0.039554   0.030342   0.002716  -0.003328
   14  CL 6  Y    0.977119   0.000654   0.001662  -0.008974   0.008910
   15  CL 6  Z    0.209130   0.000119   0.000217   0.008740   0.009372
 ...... END OF RHF CALCULATION ......
 STEP CPU TIME =     0.33 TOTAL CPU TIME =          2.9 (      0.0 MIN)
 TOTAL WALL CLOCK TIME=          2.9 SECONDS, CPU UTILIZATION IS   100.00%

     ----------------------------------------------------------------
     PROPERTY VALUES FOR THE RHF   SELF-CONSISTENT FIELD WAVEFUNCTION
     ----------------------------------------------------------------

                    -------------
                    MOPAC CHARGES
                    -------------
         ATOM NO.   TYPE          CHARGE        ATOM  ELECTRON DENSITY
           1         C             -0.0038          4.0038
           2         BR            -0.2383          7.2383
           3         H              0.0778          0.9222
           4         H              0.0786          0.9214
           5         H              0.0798          0.9202
           6         CL            -0.9941          7.9941

          ---------------------
          ELECTROSTATIC MOMENTS
          ---------------------

 POINT   1           X           Y           Z (ANGS)      CHARGE
                -1.258806    1.082000   -0.001168       -1.00 (A.U.)
         DX          DY          DZ         /D/  (DEBYE)
    14.252138    0.203291    0.037751   14.253638
 ...... END OF PROPERTY EVALUATION ......
 STEP CPU TIME =     0.01 TOTAL CPU TIME =          2.9 (      0.0 MIN)
 TOTAL WALL CLOCK TIME=          2.9 SECONDS, CPU UTILIZATION IS   100.00%
 ---- SURFACE MAPPING GEOMETRY ----
 COORD 1=-0.400 COORD 2= 0.000
 HAS ENERGY VALUE     -30.775485
 C     -1.54658   1.09202   0.00047
 BR     0.38663   1.10084   0.00241
 H     -1.92083   2.04168  -0.43391
 H     -1.91747   0.99029   1.04104
 H     -1.91229   0.23861  -0.60702
 CL    -4.81367   1.03545  -0.00989
 ----------------------------------

 ATOM      ATOMIC                      COORDINATES (BOHR)
           CHARGE         X                   Y                   Z
 C           6.0    -2.9226124181        2.0636185731        0.0008881712
 BR         35.0     0.7306247586        2.0802859563        0.0045542396
 H           1.0    -3.6298423690        3.8582157546       -0.8199710033
 H           1.0    -3.6234928897        1.8713767484        1.9672803423
 H           1.0    -3.6137041091        0.4509075179       -1.1471014691
 CL         17.0    -8.9075776942        1.9599801259       -0.0180931696

          INTERNUCLEAR DISTANCES (ANGS.)
          ------------------------------

                1 C          2 BR         3 H          4 H          5 H     

   1 C       0.0000000    1.9332311 *  1.1093255 *  1.1093666 *  1.1095479 *
   2 BR      1.9332311 *  0.0000000    2.5298076 *  2.5297926 *  2.5297981 *
   3 H       1.1093255 *  2.5298076 *  0.0000000    1.8113282 *  1.8113811 *
   4 H       1.1093666 *  2.5297926 *  1.8113282 *  0.0000000    1.8113949 *
   5 H       1.1095479 *  2.5297981 *  1.8113811 *  1.8113949 *  0.0000000  
   6 CL      3.1675982    5.1007289    2.9981894 *  2.9874439 *  2.9736304 *

                6 CL    

   1 C       3.1675982  
   2 BR      5.1007289  
   3 H       2.9981894 *
   4 H       2.9874439 *
   5 H       2.9736304 *
   6 CL      0.0000000  

  * ... LESS THAN  3.000


          ********************
          1 ELECTRON INTEGRALS
          ********************

          **************************
          1 AND 2 ELECTRON INTEGRALS
          **************************

 MOPAC ONE- AND TWO-ELECTRON INTEGRALS REQUIRE       633 WORDS.
 ...... END OF ONE- AND TWO-ELECTRON INTEGRALS......
 STEP CPU TIME =     0.03 TOTAL CPU TIME =          2.9 (      0.0 MIN)
 TOTAL WALL CLOCK TIME=          2.9 SECONDS, CPU UTILIZATION IS   100.00%
 ...... END OF ONE-ELECTRON INTEGRALS ......
 STEP CPU TIME =     0.01 TOTAL CPU TIME =          2.9 (      0.0 MIN)
 TOTAL WALL CLOCK TIME=          2.9 SECONDS, CPU UTILIZATION IS   100.00%

          --------------------------
               R-PM3 SCF CALCULATION
          --------------------------

     NUCLEAR ENERGY =        29.0460519282
     MAXIT =   30     NPUNCH=    2
     EXTRAP=T  DAMP=F  SHIFT=F  RSTRCT=F  DIIS=F  DEM=F  SOSCF=F
     DENSITY MATRIX CONV=  1.00E-05
     MEMORY REQUIRED FOR RHF ITERS=      2274 WORDS.

 ITER EX DEM     TOTAL ENERGY        E CHANGE  DENSITY CHANGE    DIIS ERROR
   1  0  0      -30.7763479769   -30.7763479769   0.005050347   0.000000000
   2  1  0      -30.7763843536    -0.0000363767   0.002523772   0.000000000
   3  2  0      -30.7763900626    -0.0000057090   0.001259967   0.000000000
   4  3  0      -30.7763913098    -0.0000012472   0.000629792   0.000000000
   5  0  0      -30.7763916061    -0.0000002962   0.000673503   0.000000000
   6  1  0      -30.7763917082    -0.0000001021   0.000019577   0.000000000
   7  2  0      -30.7763917084    -0.0000000002   0.000009589   0.000000000
   8  3  0      -30.7763917085    -0.0000000000   0.000004680   0.000000000

          -----------------
          DENSITY CONVERGED
          -----------------
     TIME TO FORM FOCK OPERATORS=       0.0 SECONDS (       0.0 SEC/ITER)
     TIME TO SOLVE SCF EQUATIONS=       0.3 SECONDS (       0.0 SEC/ITER)

 FINAL R-PM3 ENERGY IS      -30.7763917085 AFTER   8 ITERATIONS

 HEAT OF FORMATION IS       -61.96082 KCAL/MOL
 

          ------------
          EIGENVECTORS
          ------------

                      1          2          3          4          5
                   -1.7402    -0.9247    -0.6081    -0.3977    -0.3975
                     A          A          A          A          A   
    1  C  1  S    0.024900   0.761660  -0.090575  -0.000384   0.000504
    2  C  1  X   -0.008137  -0.008455   0.123062  -0.003155   0.004451
    3  C  1  Y   -0.000173   0.000264   0.000429   0.494576  -0.455911
    4  C  1  Z   -0.000032   0.000046   0.000099  -0.455819  -0.494733
    5  BR 2  S    0.001643   0.161398   0.977252   0.000152  -0.000209
    6  BR 2  X   -0.003528  -0.227572   0.093040   0.000751  -0.000963
    7  BR 2  Y   -0.000026  -0.000995   0.000452   0.294698  -0.272309
    8  BR 2  Z   -0.000005  -0.000221   0.000097  -0.271587  -0.295479
    9  H  3  S    0.022109   0.336598  -0.065474   0.482809  -0.158391
   10  H  4  S    0.022389   0.336298  -0.065356  -0.377766  -0.338748
   11  H  5  S    0.022756   0.335872  -0.065189  -0.103918   0.495630
   12  CL 6  S    0.998888  -0.042874   0.006421   0.000215  -0.000279
   13  CL 6  X    0.003626   0.030333  -0.011127  -0.000928   0.001216
   14  CL 6  Y    0.000058   0.000465  -0.000179   0.014611  -0.013786
   15  CL 6  Z    0.000010   0.000085  -0.000033  -0.013493  -0.014990

                      6          7          8          9         10
                   -0.3736    -0.2916    -0.2916    -0.1471    -0.1470
                     A          A          A          A          A   
    1  C  1  S   -0.007115   0.000148   0.000197  -0.057786  -0.001621
    2  C  1  X   -0.580375   0.000464   0.000697   0.015450   0.000412
    3  C  1  Y   -0.005197  -0.200505  -0.185492   0.000247   0.016746
    4  C  1  Z   -0.001095   0.184761  -0.201319   0.000027  -0.022359
    5  BR 2  S    0.033768  -0.000038  -0.000050   0.009672   0.000255
    6  BR 2  X    0.759919  -0.002157  -0.003103  -0.063757  -0.001681
    7  BR 2  Y    0.001255   0.673415   0.620188  -0.000348  -0.004285
    8  BR 2  Z    0.000323  -0.620509   0.673077  -0.000069   0.005704
    9  H  3  S    0.162863  -0.228657  -0.074969  -0.002040   0.004592
   10  H  4  S    0.164064   0.179289  -0.160740  -0.002156  -0.004471
   11  H  5  S    0.165777   0.049506   0.235919  -0.002298  -0.000163
   12  CL 6  S   -0.013192  -0.000110  -0.000145  -0.002139  -0.000055
   13  CL 6  X    0.058043   0.000865   0.001145   0.993302   0.033957
   14  CL 6  Y    0.000865  -0.011762  -0.011130   0.073669  -0.601705
   15  CL 6  Z    0.000156   0.010863  -0.012106   0.013019   0.797446

                     11         12         13         14         15
                   -0.1470     0.1241     0.2826     0.2847     0.2850
                     A          A          A          A          A   
    1  C  1  S    0.003159   0.339443   0.536055   0.045925  -0.054423
    2  C  1  X   -0.000787   0.693427  -0.405296  -0.032636   0.037973
    3  C  1  Y   -0.022828   0.003738   0.088518  -0.485446   0.478115
    4  C  1  Z   -0.017430   0.000805   0.007800   0.483244   0.488274
    5  BR 2  S   -0.000498  -0.131454   0.020107   0.001694  -0.002002
    6  BR 2  X    0.003272   0.597255  -0.035156  -0.002991   0.003549
    7  BR 2  Y    0.005833   0.002701  -0.003977   0.020196  -0.019825
    8  BR 2  Z    0.004442   0.000592  -0.000381  -0.020127  -0.020264
    9  H  3  S   -0.002480  -0.096059  -0.487311   0.517376  -0.157790
   10  H  4  S   -0.002735  -0.095920  -0.419401  -0.490649  -0.337501
   11  H  5  S    0.005296  -0.095733  -0.352551  -0.134820   0.623472
   12  CL 6  S    0.000107   0.005797   0.011295   0.001113  -0.001352
   13  CL 6  X   -0.066419   0.047902   0.032142   0.003403  -0.004192
   14  CL 6  Y    0.794753   0.000798   0.002239  -0.010350   0.010553
   15  CL 6  Z    0.602506   0.000145   0.000264   0.010388   0.010852
 ...... END OF RHF CALCULATION ......
 STEP CPU TIME =     0.33 TOTAL CPU TIME =          3.3 (      0.1 MIN)
 TOTAL WALL CLOCK TIME=          3.3 SECONDS, CPU UTILIZATION IS   100.00%

     ----------------------------------------------------------------
     PROPERTY VALUES FOR THE RHF   SELF-CONSISTENT FIELD WAVEFUNCTION
     ----------------------------------------------------------------

                    -------------
                    MOPAC CHARGES
                    -------------
         ATOM NO.   TYPE          CHARGE        ATOM  ELECTRON DENSITY
           1         C             -0.0013          4.0013
           2         BR            -0.2454          7.2454
           3         H              0.0785          0.9215
           4         H              0.0795          0.9205
           5         H              0.0807          0.9193
           6         CL            -0.9921          7.9921

          ---------------------
          ELECTROSTATIC MOMENTS
          ---------------------

 POINT   1           X           Y           Z (ANGS)      CHARGE
                -1.231620    1.082471   -0.001082       -1.00 (A.U.)
         DX          DY          DZ         /D/  (DEBYE)
    13.807586    0.196163    0.036436   13.809027
 ...... END OF PROPERTY EVALUATION ......
 STEP CPU TIME =     0.01 TOTAL CPU TIME =          3.3 (      0.1 MIN)
 TOTAL WALL CLOCK TIME=          3.3 SECONDS, CPU UTILIZATION IS   100.00%
 ---- SURFACE MAPPING GEOMETRY ----
 COORD 1=-0.500 COORD 2= 0.000
 HAS ENERGY VALUE     -30.776392
 C     -1.54658   1.09202   0.00047
 BR     0.38663   1.10084   0.00241
 H     -1.92083   2.04168  -0.43391
 H     -1.91747   0.99029   1.04104
 H     -1.91229   0.23861  -0.60702
 CL    -4.71369   1.03718  -0.00957
 ----------------------------------

 ATOM      ATOMIC                      COORDINATES (BOHR)
           CHARGE         X                   Y                   Z
 C           6.0    -2.9226124181        2.0636185731        0.0008881712
 BR         35.0     0.7306247586        2.0802859563        0.0045542396
 H           1.0    -3.6298423690        3.8582157546       -0.8199710033
 H           1.0    -3.6234928897        1.8713767484        1.9672803423
 H           1.0    -3.6137041091        0.4509075179       -1.1471014691
 CL         17.0    -8.7186343717        1.9632519565       -0.0174939351

          INTERNUCLEAR DISTANCES (ANGS.)
          ------------------------------

                1 C          2 BR         3 H          4 H          5 H     

   1 C       0.0000000    1.9332311 *  1.1093255 *  1.1093666 *  1.1095479 *
   2 BR      1.9332311 *  0.0000000    2.5298076 *  2.5297926 *  2.5297981 *
   3 H       1.1093255 *  2.5298076 *  0.0000000    1.8113282 *  1.8113811 *
   4 H       1.1093666 *  2.5297926 *  1.8113282 *  0.0000000    1.8113949 *
   5 H       1.1095479 *  2.5297981 *  1.8113811 *  1.8113949 *  0.0000000  
   6 CL      3.0675982    5.0007301    2.9047282 *  2.8939870 *  2.8801787 *

                6 CL    

   1 C       3.0675982  
   2 BR      5.0007301  
   3 H       2.9047282 *
   4 H       2.8939870 *
   5 H       2.8801787 *
   6 CL      0.0000000  

  * ... LESS THAN  3.000


          ********************
          1 ELECTRON INTEGRALS
          ********************

          **************************
          1 AND 2 ELECTRON INTEGRALS
          **************************

 MOPAC ONE- AND TWO-ELECTRON INTEGRALS REQUIRE       633 WORDS.
 ...... END OF ONE- AND TWO-ELECTRON INTEGRALS......
 STEP CPU TIME =     0.03 TOTAL CPU TIME =          3.3 (      0.1 MIN)
 TOTAL WALL CLOCK TIME=          3.3 SECONDS, CPU UTILIZATION IS   100.00%
 ...... END OF ONE-ELECTRON INTEGRALS ......
 STEP CPU TIME =     0.01 TOTAL CPU TIME =          3.3 (      0.1 MIN)
 TOTAL WALL CLOCK TIME=          3.3 SECONDS, CPU UTILIZATION IS   100.00%

          --------------------------
               R-PM3 SCF CALCULATION
          --------------------------

     NUCLEAR ENERGY =        29.3757802995
     MAXIT =   30     NPUNCH=    2
     EXTRAP=T  DAMP=F  SHIFT=F  RSTRCT=F  DIIS=F  DEM=F  SOSCF=F
     DENSITY MATRIX CONV=  1.00E-05
     MEMORY REQUIRED FOR RHF ITERS=      2274 WORDS.

 ITER EX DEM     TOTAL ENERGY        E CHANGE  DENSITY CHANGE    DIIS ERROR
   1  0  0      -30.7772694123   -30.7772694123   0.006396708   0.000000000
   2  1  0      -30.7773168446    -0.0000474323   0.003194265   0.000000000
   3  2  0      -30.7773245952    -0.0000077506   0.001593304   0.000000000
   4  3  0      -30.7773263379    -0.0000017426   0.000797088   0.000000000
   5  0  0      -30.7773267616    -0.0000004237   0.000857125   0.000000000
   6  1  0      -30.7773269114    -0.0000001499   0.000023425   0.000000000
   7  2  0      -30.7773269118    -0.0000000003   0.000011516   0.000000000
   8  3  0      -30.7773269118    -0.0000000001   0.000005643   0.000000000

          -----------------
          DENSITY CONVERGED
          -----------------
     TIME TO FORM FOCK OPERATORS=       0.0 SECONDS (       0.0 SEC/ITER)
     TIME TO SOLVE SCF EQUATIONS=       0.3 SECONDS (       0.0 SEC/ITER)

 FINAL R-PM3 ENERGY IS      -30.7773269118 AFTER   8 ITERATIONS

 HEAT OF FORMATION IS       -62.54769 KCAL/MOL
 

          ------------
          EIGENVECTORS
          ------------

                      1          2          3          4          5
                   -1.7426    -0.9203    -0.6030    -0.3939    -0.3937
                     A          A          A          A          A   
    1  C  1  S    0.029613   0.761463  -0.090193  -0.000394   0.000517
    2  C  1  X   -0.010096  -0.007574   0.122971  -0.003192   0.004495
    3  C  1  Y   -0.000211   0.000287   0.000422   0.494005  -0.454751
    4  C  1  Z   -0.000038   0.000050   0.000098  -0.454661  -0.494161
    5  BR 2  S    0.001905   0.161076   0.977271   0.000154  -0.000212
    6  BR 2  X   -0.004137  -0.228156   0.093294   0.000796  -0.001022
    7  BR 2  Y   -0.000031  -0.000994   0.000452   0.297966  -0.274974
    8  BR 2  Z   -0.000006  -0.000221   0.000097  -0.274217  -0.298785
    9  H  3  S    0.025796   0.336157  -0.065310   0.481705  -0.157662
   10  H  4  S    0.026120   0.335837  -0.065186  -0.376555  -0.338139
   11  H  5  S    0.026543   0.335385  -0.065011  -0.103981   0.494235
   12  CL 6  S    0.998464  -0.050451   0.007618   0.000250  -0.000323
   13  CL 6  X    0.004212   0.036039  -0.013451  -0.001107   0.001448
   14  CL 6  Y    0.000065   0.000553  -0.000218   0.018114  -0.017062
   15  CL 6  Z    0.000012   0.000101  -0.000040  -0.016704  -0.018576

                      6          7          8          9         10
                   -0.3704    -0.2888    -0.2887    -0.1486    -0.1486
                     A          A          A          A          A   
    1  C  1  S   -0.006283   0.000151   0.000199  -0.001584  -0.001692
    2  C  1  X   -0.577508   0.000478   0.000716   0.000439   0.000482
    3  C  1  Y   -0.005230  -0.202946  -0.187479  -0.027302  -0.020752
    4  C  1  Z   -0.001101   0.186716  -0.203797   0.020125  -0.028038
    5  BR 2  S    0.033369  -0.000038  -0.000051   0.000315   0.000336
    6  BR 2  X    0.761052  -0.002156  -0.003096  -0.002069  -0.002211
    7  BR 2  Y    0.001192   0.672538   0.618384   0.007214   0.005468
    8  BR 2  Z    0.000310  -0.618725   0.672177  -0.005329   0.007403
    9  H  3  S    0.162716  -0.230724  -0.075453  -0.007237  -0.001703
   10  H  4  S    0.163937   0.180729  -0.162302   0.004610  -0.005606
[...]
 H           1.0    -3.6298423690        3.8582157546       -0.8199710033
 H           1.0    -3.6234928897        1.8713767484        1.9672803423
 H           1.0    -3.6137041091        0.4509075179       -1.1471014691
 CL         17.0    -6.4513145013        2.0025139238       -0.0103031213

          INTERNUCLEAR DISTANCES (ANGS.)
          ------------------------------

                1 C          2 BR         3 H          4 H          5 H     

   1 C       0.0000000    1.9332311 *  1.1093255 *  1.1093666 *  1.1095479 *
   2 BR      1.9332311 *  0.0000000    2.5298076 *  2.5297926 *  2.5297981 *
   3 H       1.1093255 *  2.5298076 *  0.0000000    1.8113282 *  1.8113811 *
   4 H       1.1093666 *  2.5297926 *  1.8113282 *  0.0000000    1.8113949 *
   5 H       1.1095479 *  2.5297981 *  1.8113811 *  1.8113949 *  0.0000000  
   6 CL      1.8675982 *  3.8007498    1.8376930 *  1.8273563 *  1.8140691 *

                6 CL    

   1 C       1.8675982 *
   2 BR      3.8007498  
   3 H       1.8376930 *
   4 H       1.8273563 *
   5 H       1.8140691 *
   6 CL      0.0000000  

  * ... LESS THAN  3.000


          ********************
          1 ELECTRON INTEGRALS
          ********************

          **************************
          1 AND 2 ELECTRON INTEGRALS
          **************************

 MOPAC ONE- AND TWO-ELECTRON INTEGRALS REQUIRE       633 WORDS.
 ...... END OF ONE- AND TWO-ELECTRON INTEGRALS......
 STEP CPU TIME =     0.03 TOTAL CPU TIME =          8.4 (      0.1 MIN)
 TOTAL WALL CLOCK TIME=          8.4 SECONDS, CPU UTILIZATION IS   100.00%
 ...... END OF ONE-ELECTRON INTEGRALS ......
 STEP CPU TIME =     0.01 TOTAL CPU TIME =          8.4 (      0.1 MIN)
 TOTAL WALL CLOCK TIME=          8.4 SECONDS, CPU UTILIZATION IS   100.00%

          --------------------------
               R-PM3 SCF CALCULATION
          --------------------------

     NUCLEAR ENERGY =        35.1548089376
     MAXIT =   30     NPUNCH=    2
     EXTRAP=T  DAMP=F  SHIFT=F  RSTRCT=F  DIIS=F  DEM=F  SOSCF=F
     DENSITY MATRIX CONV=  1.00E-05
     MEMORY REQUIRED FOR RHF ITERS=      2274 WORDS.

 ITER EX DEM     TOTAL ENERGY        E CHANGE  DENSITY CHANGE    DIIS ERROR
   1  0  0      -30.6850135210   -30.6850135210   0.033131182   0.000000000
   2  1  0      -30.6862520835    -0.0012385626   0.015183614   0.000000000
   3  2  0      -30.6864564012    -0.0002043177   0.007584375   0.000000000
   4  3  0      -30.6865160333    -0.0000596321   0.004053887   0.000000000
   5  0  0      -30.6865362167    -0.0000201834   0.005817788   0.000000000
   6  1  0      -30.6865480442    -0.0000118276   0.000118415   0.000000000
   7  2  0      -30.6865480745    -0.0000000303   0.000060545   0.000000000
   8  3  0      -30.6865480812    -0.0000000067   0.000031310   0.000000000
   9  4  0      -30.6865480829    -0.0000000016   0.000016216   0.000000000
  10  5  0      -30.6865480832    -0.0000000004   0.000008471   0.000000000
  11  6  0      -30.6865480834    -0.0000000001   0.000004475   0.000000000

          -----------------
          DENSITY CONVERGED
          -----------------
     TIME TO FORM FOCK OPERATORS=       0.1 SECONDS (       0.0 SEC/ITER)
     TIME TO SOLVE SCF EQUATIONS=       0.4 SECONDS (       0.0 SEC/ITER)

 FINAL R-PM3 ENERGY IS      -30.6865480834 AFTER  11 ITERATIONS

 HEAT OF FORMATION IS        -5.58144 KCAL/MOL
 

          ------------
          EIGENVECTORS
          ------------

                      1          2          3          4          5
                   -1.8988    -0.8257    -0.4375    -0.3641    -0.3637
                     A          A          A          A          A   
    1  C  1  S    0.173512   0.726987  -0.022900  -0.001504   0.001235
    2  C  1  X   -0.094247  -0.006623   0.217110  -0.001243   0.001298
    3  C  1  Y   -0.001659   0.000741   0.001850  -0.417147   0.472892
    4  C  1  Z   -0.000304   0.000129   0.000358  -0.471963  -0.418047
    5  BR 2  S    0.006508   0.120760   0.955514   0.003474  -0.002861
    6  BR 2  X   -0.018956  -0.213084  -0.006297   0.006396  -0.005226
    7  BR 2  Y   -0.000155  -0.000835   0.000238  -0.164204   0.186762
    8  BR 2  Z   -0.000031  -0.000190   0.000037  -0.185807  -0.165127
    9  H  3  S    0.117811   0.309690  -0.049030  -0.149789   0.491936
   10  H  4  S    0.119033   0.308771  -0.049356  -0.350567  -0.375834
   11  H  5  S    0.120622   0.307535  -0.049747   0.500205  -0.115977
   12  CL 6  S    0.957048  -0.264015   0.045571  -0.002187   0.001767
   13  CL 6  X    0.045458   0.236458  -0.172879   0.015286  -0.012262
   14  CL 6  Y    0.000611   0.003810  -0.003023  -0.252863   0.282786
   15  CL 6  Z    0.000110   0.000699  -0.000553  -0.286317  -0.250198

                      6          7          8          9         10
                   -0.3346    -0.2249    -0.2247    -0.1819    -0.1812
                     A          A          A          A          A   
    1  C  1  S   -0.110255  -0.000543  -0.000434  -0.001012  -0.001296
    2  C  1  X   -0.503700   0.000204   0.000174   0.002232   0.002883
    3  C  1  Y    0.005675  -0.001257  -0.003127  -0.261634  -0.230912
    4  C  1  Z    0.000729  -0.001425   0.002777   0.227718  -0.265372
    5  BR 2  S    0.216925  -0.000045  -0.000035   0.000969   0.001221
    6  BR 2  X    0.659641  -0.002681  -0.001912  -0.008301  -0.010480
    7  BR 2  Y    0.006677   0.590928   0.665714   0.287763   0.248854
    8  BR 2  Z    0.001224   0.666755  -0.590024  -0.250512   0.286049
    9  H  3  S    0.070117  -0.018284  -0.060700  -0.227346  -0.069574
   10  H  4  S    0.064513  -0.042869   0.046788   0.167857  -0.164304
   11  H  5  S    0.057593   0.061892   0.014479   0.052255   0.224832
   12  CL 6  S   -0.064961  -0.000140  -0.000110   0.000122   0.000166
   13  CL 6  X    0.484743   0.006957   0.005512  -0.000793  -0.000910
   14  CL 6  Y    0.016416  -0.296733  -0.336796   0.608847   0.529259
   15  CL 6  Z    0.002864  -0.334857   0.298547  -0.529872   0.608180

                     11         12         13         14         15
                   -0.1369     0.2225     0.3266     0.3392     0.3395
                     A          A          A          A          A   
    1  C  1  S   -0.229901   0.263294   0.553559   0.006189  -0.007130
    2  C  1  X    0.003085   0.728961  -0.398510  -0.001419   0.001134
    3  C  1  Y    0.010732   0.007179   0.010291  -0.522177   0.455629
    4  C  1  Z    0.001974   0.001422   0.001285   0.456602   0.521253
    5  BR 2  S    0.100440  -0.121386   0.021567   0.000164  -0.000183
    6  BR 2  X   -0.569558   0.439978  -0.028918  -0.000178   0.000201
    7  BR 2  Y   -0.008185   0.001411  -0.000754   0.023088  -0.020051
    8  BR 2  Z   -0.001589   0.000335  -0.000118  -0.020192  -0.022943
    9  H  3  S   -0.133973  -0.150219  -0.426352   0.556157  -0.162197
   10  H  4  S   -0.139336  -0.150813  -0.418638  -0.430832  -0.396879
   11  H  5  S   -0.146384  -0.151533  -0.409698  -0.140216   0.576369
   12  CL 6  S    0.047037   0.073688   0.020147   0.000787  -0.000967
   13  CL 6  X    0.742603   0.342321  -0.089729   0.000155  -0.000373
   14  CL 6  Y    0.000761   0.005824  -0.003028  -0.043131   0.040038
   15  CL 6  Z    0.000094   0.001057  -0.000560   0.037640   0.045724
 ...... END OF RHF CALCULATION ......
 STEP CPU TIME =     0.46 TOTAL CPU TIME =          8.9 (      0.1 MIN)
 TOTAL WALL CLOCK TIME=          8.9 SECONDS, CPU UTILIZATION IS   100.00%

     ----------------------------------------------------------------
     PROPERTY VALUES FOR THE RHF   SELF-CONSISTENT FIELD WAVEFUNCTION
     ----------------------------------------------------------------

                    -------------
                    MOPAC CHARGES
                    -------------
         ATOM NO.   TYPE          CHARGE        ATOM  ELECTRON DENSITY
           1         C              0.0533          3.9467
           2         BR            -0.5770          7.5770
           3         H              0.0799          0.9201
           4         H              0.0823          0.9177
           5         H              0.0854          0.9146
           6         CL            -0.7238          7.7238

          ---------------------
          ELECTROSTATIC MOMENTS
          ---------------------

 POINT   1           X           Y           Z (ANGS)      CHARGE
                -0.878210    1.088591    0.000039       -1.00 (A.U.)
         DX          DY          DZ         /D/  (DEBYE)
     3.727951    0.057614    0.010528    3.728411
 ...... END OF PROPERTY EVALUATION ......
 STEP CPU TIME =     0.01 TOTAL CPU TIME =          8.9 (      0.1 MIN)
 TOTAL WALL CLOCK TIME=          8.9 SECONDS, CPU UTILIZATION IS   100.00%
 ---- SURFACE MAPPING GEOMETRY ----
 COORD 1=-1.800 COORD 2= 0.000
 HAS ENERGY VALUE     -30.686548
 C     -1.54658   1.09202   0.00047
 BR     0.38663   1.10084   0.00241
 H     -1.92083   2.04168  -0.43391
 H     -1.91747   0.99029   1.04104
 H     -1.91229   0.23861  -0.60702
 CL    -3.41389   1.05968  -0.00545
 ----------------------------------

 ATOM      ATOMIC                      COORDINATES (BOHR)
           CHARGE         X                   Y                   Z
 C           6.0    -2.9226124181        2.0636185731        0.0008881712
 BR         35.0     0.7306247586        2.0802859563        0.0045542396
 H           1.0    -3.6298423690        3.8582157546       -0.8199710033
 H           1.0    -3.6234928897        1.8713767484        1.9672803423
 H           1.0    -3.6137041091        0.4509075179       -1.1471014691
 CL         17.0    -6.2623711787        2.0057857544       -0.0097038868

          INTERNUCLEAR DISTANCES (ANGS.)
          ------------------------------

                1 C          2 BR         3 H          4 H          5 H     

   1 C       0.0000000    1.9332311 *  1.1093255 *  1.1093666 *  1.1095479 *
   2 BR      1.9332311 *  0.0000000    2.5298076 *  2.5297926 *  2.5297981 *
   3 H       1.1093255 *  2.5298076 *  0.0000000    1.8113282 *  1.8113811 *
   4 H       1.1093666 *  2.5297926 *  1.8113282 *  0.0000000    1.8113949 *
   5 H       1.1095479 *  2.5297981 *  1.8113811 *  1.8113949 *  0.0000000  
   6 CL      1.7675982 *  3.7007520    1.7565367 *  1.7463018 *  1.7331469 *

                6 CL    

   1 C       1.7675982 *
   2 BR      3.7007520  
   3 H       1.7565367 *
   4 H       1.7463018 *
   5 H       1.7331469 *
   6 CL      0.0000000  

  * ... LESS THAN  3.000


          ********************
          1 ELECTRON INTEGRALS
          ********************

          **************************
          1 AND 2 ELECTRON INTEGRALS
          **************************

 MOPAC ONE- AND TWO-ELECTRON INTEGRALS REQUIRE       633 WORDS.
 ...... END OF ONE- AND TWO-ELECTRON INTEGRALS......
 STEP CPU TIME =     0.03 TOTAL CPU TIME =          8.9 (      0.1 MIN)
 TOTAL WALL CLOCK TIME=          8.9 SECONDS, CPU UTILIZATION IS   100.00%
 ...... END OF ONE-ELECTRON INTEGRALS ......
 STEP CPU TIME =     0.00 TOTAL CPU TIME =          8.9 (      0.1 MIN)
 TOTAL WALL CLOCK TIME=          8.9 SECONDS, CPU UTILIZATION IS   100.00%

          --------------------------
               R-PM3 SCF CALCULATION
          --------------------------

     NUCLEAR ENERGY =        35.8608663279
     MAXIT =   30     NPUNCH=    2
     EXTRAP=T  DAMP=F  SHIFT=F  RSTRCT=F  DIIS=F  DEM=F  SOSCF=F
     DENSITY MATRIX CONV=  1.00E-05
     MEMORY REQUIRED FOR RHF ITERS=      2274 WORDS.

 ITER EX DEM     TOTAL ENERGY        E CHANGE  DENSITY CHANGE    DIIS ERROR
   1  0  0      -30.6504179798   -30.6504179798   0.030711447   0.000000000
   2  1  0      -30.6518408597    -0.0014228798   0.014479770   0.000000000
   3  2  0      -30.6520802718    -0.0002394121   0.007486614   0.000000000
   4  3  0      -30.6521550796    -0.0000748079   0.004136241   0.000000000
   5  0  0      -30.6521820141    -0.0000269344   0.006371176   0.000000000
   6  1  0      -30.6521992549    -0.0000172408   0.000134942   0.000000000
   7  2  0      -30.6521993004    -0.0000000455   0.000069664   0.000000000
   8  3  0      -30.6521993107    -0.0000000103   0.000035243   0.000000000
   9  4  0      -30.6521993132    -0.0000000025   0.000017807   0.000000000
  10  5  0      -30.6521993138    -0.0000000006   0.000009044   0.000000000
  11  6  0      -30.6521993139    -0.0000000002   0.000004631   0.000000000

          -----------------
          DENSITY CONVERGED
          -----------------
     TIME TO FORM FOCK OPERATORS=       0.1 SECONDS (       0.0 SEC/ITER)
     TIME TO SOLVE SCF EQUATIONS=       0.4 SECONDS (       0.0 SEC/ITER)

 FINAL R-PM3 ENERGY IS      -30.6521993139 AFTER  11 ITERATIONS

 HEAT OF FORMATION IS        15.97337 KCAL/MOL
 

          ------------
          EIGENVECTORS
          ------------

                      1          2          3          4          5
                   -1.9350    -0.8126    -0.4169    -0.3731    -0.3724
                     A          A          A          A          A   
    1  C  1  S    0.192960   0.717107   0.000750  -0.001423   0.001174
    2  C  1  X   -0.107764  -0.007402   0.266083   0.000873  -0.000436
    3  C  1  Y   -0.001885   0.000815   0.003332  -0.402987   0.458428
    4  C  1  Z   -0.000346   0.000141   0.000621  -0.457194  -0.404141
    5  BR 2  S    0.006772   0.115069   0.928555   0.004878  -0.004014
    6  BR 2  X   -0.020590  -0.208540  -0.059765   0.004105  -0.003373
    7  BR 2  Y   -0.000170  -0.000804   0.000356  -0.139210   0.159029
    8  BR 2  Z   -0.000034  -0.000184   0.000045  -0.157949  -0.140211
    9  H  3  S    0.127831   0.302428  -0.042596  -0.147467   0.485523
   10  H  4  S    0.129129   0.301394  -0.043608  -0.346600  -0.369689
   11  H  5  S    0.130814   0.300008  -0.044884   0.492671  -0.114675
   12  CL 6  S    0.947413  -0.290969   0.053519  -0.001983   0.001604
   13  CL 6  X    0.054413   0.268296  -0.234077   0.014224  -0.011417
   14  CL 6  Y    0.000739   0.004382  -0.003704  -0.295177   0.331885
   15  CL 6  Z    0.000133   0.000805  -0.000678  -0.335061  -0.292750

                      6          7          8          9         10
                   -0.3327    -0.2184    -0.2184    -0.1774    -0.1766
                     A          A          A          A          A   
    1  C  1  S   -0.129324  -0.000574  -0.000450  -0.001072  -0.001373
    2  C  1  X   -0.482850  -0.000730  -0.000548   0.002560   0.003285
    3  C  1  Y    0.002790   0.056299   0.061325  -0.277327  -0.244485
    4  C  1  Z    0.000258   0.062192  -0.055530   0.241225  -0.281158
    5  BR 2  S    0.312752  -0.000137  -0.000108   0.001106   0.001396
    6  BR 2  X    0.631892  -0.000911  -0.000463  -0.009733  -0.012292
    7  BR 2  Y    0.004932   0.572161   0.629210   0.364553   0.313118
    8  BR 2  Z    0.000933   0.632043  -0.569738  -0.317160   0.360157
    9  H  3  S    0.042339   0.000687   0.001353  -0.254238  -0.077710
   10  H  4  S    0.038369   0.000568   0.000010   0.187486  -0.183618
   11  H  5  S    0.033507   0.001010   0.000407   0.058400   0.250871
   12  CL 6  S   -0.061065  -0.000109  -0.000083   0.000214   0.000285
   13  CL 6  X    0.494561   0.006951   0.005401  -0.000143  -0.000118
   14  CL 6  Y    0.016774  -0.346231  -0.387091   0.548338   0.477993
   15  CL 6  Z    0.002912  -0.382346   0.350396  -0.476900   0.549625

                     11         12         13         14         15
                   -0.1302     0.2374     0.3248     0.3402     0.3404
                     A          A          A          A          A   
    1  C  1  S   -0.234224   0.260112   0.556102   0.003198  -0.003571
    2  C  1  X   -0.011384   0.719979  -0.407267   0.000736  -0.001379
    3  C  1  Y    0.011008   0.007378   0.004347  -0.527467   0.453203
    4  C  1  Z    0.002035   0.001458   0.000413   0.454158   0.526484
    5  BR 2  S    0.111821  -0.116758   0.022482   0.000048  -0.000045
    6  BR 2  X   -0.617111   0.413767  -0.030397  -0.000019   0.000013
    7  BR 2  Y   -0.008941   0.001255  -0.000498   0.024119  -0.020631
    8  BR 2  Z   -0.001741   0.000302  -0.000082  -0.020770  -0.023971
    9  H  3  S   -0.150470  -0.169747  -0.414739   0.557947  -0.160201
   10  H  4  S   -0.156368  -0.170590  -0.410886  -0.424037  -0.401570
   11  H  5  S   -0.164134  -0.171621  -0.406546  -0.141804   0.570737
   12  CL 6  S    0.056948   0.087582   0.015203   0.000663  -0.000813
   13  CL 6  X    0.688619   0.366061  -0.130642   0.000160  -0.000375
   14  CL 6  Y   -0.000813   0.006080  -0.004570  -0.043414   0.039965
   15  CL 6  Z   -0.000201   0.001103  -0.000837   0.037272   0.046306
 ...... END OF RHF CALCULATION ......
 STEP CPU TIME =     0.46 TOTAL CPU TIME =          9.4 (      0.2 MIN)
 TOTAL WALL CLOCK TIME=          9.4 SECONDS, CPU UTILIZATION IS   100.00%

     ----------------------------------------------------------------
     PROPERTY VALUES FOR THE RHF   SELF-CONSISTENT FIELD WAVEFUNCTION
     ----------------------------------------------------------------

                    -------------
                    MOPAC CHARGES
                    -------------
         ATOM NO.   TYPE          CHARGE        ATOM  ELECTRON DENSITY
           1         C              0.0566          3.9434
           2         BR            -0.6234          7.6234
           3         H              0.0756          0.9244
           4         H              0.0780          0.9220
           5         H              0.0812          0.9188
           6         CL            -0.6679          7.6679

          ---------------------
          ELECTROSTATIC MOMENTS
          ---------------------

 POINT   1           X           Y           Z (ANGS)      CHARGE
                -0.851025    1.089061    0.000125       -1.00 (A.U.)
         DX          DY          DZ         /D/  (DEBYE)
     2.615200    0.043554    0.007877    2.615574
 ...... END OF PROPERTY EVALUATION ......
 STEP CPU TIME =     0.01 TOTAL CPU TIME =          9.4 (      0.2 MIN)
 TOTAL WALL CLOCK TIME=          9.4 SECONDS, CPU UTILIZATION IS   100.00%
 ---- SURFACE MAPPING GEOMETRY ----
 COORD 1=-1.900 COORD 2= 0.000
 HAS ENERGY VALUE     -30.652199
 C     -1.54658   1.09202   0.00047
 BR     0.38663   1.10084   0.00241
 H     -1.92083   2.04168  -0.43391
 H     -1.91747   0.99029   1.04104
 H     -1.91229   0.23861  -0.60702
 CL    -3.31390   1.06142  -0.00514
 ----------------------------------
 ... DONE WITH POTENTIAL SURFACE SCAN ...
 STEP CPU TIME =     0.00 TOTAL CPU TIME =          9.4 (      0.2 MIN)
 TOTAL WALL CLOCK TIME=          9.4 SECONDS, CPU UTILIZATION IS   100.00%
                   580000  WORDS OF DYNAMIC MEMORY USED
 EXECUTION OF GAMESS TERMINATED NORMALLY Thu Sep 10 23:25:34 2020
 DDI: 263640 bytes (0.3 MB / 0 MWords) used by master data server.

 ----------------------------------------
 CPU timing information for all processes
 ========================================
 0: 1.875000 + 6.218750 = 8.093750
 1: 0.046875 + 0.000000 = 0.046875
 ----------------------------------------
           Disk usage (in bytes)       
 ========================================
09/10/2020  11:24 p. m.               662 SN2.F05
09/10/2020  11:25 p. m.                 0 SN2.F08
09/10/2020  11:25 p. m.        52,428,800 SN2.F10
09/10/2020  11:25 p. m.            16,804 SN2.GMS.ENV
09/10/2020  11:25 p. m.               117 SN2.processes.mpd
 ----------------------------------------
            Local date and time          
 ========================================
09/10/2020 - 23:25:40.35                          
