          ******************************************************
          *      GAMESS VERSION = 30 JUN 2019 R1 Patch 1       *
          *             FROM IOWA STATE UNIVERSITY             *
          * M.W.SCHMIDT, K.K.BALDRIDGE, J.A.BOATZ, S.T.ELBERT, *
          *   M.S.GORDON, J.H.JENSEN, S.KOSEKI, N.MATSUNAGA,   *
          *          K.A.NGUYEN, S.J.SU, T.L.WINDUS,           *
          *       TOGETHER WITH M.DUPUIS, J.A.MONTGOMERY       *
          *         J.COMPUT.CHEM.  14, 1347-1363(1993)        *
          *************** 64 BIT WINDOWS VERSION ***************

  SINCE 1993, STUDENTS AND POSTDOCS WORKING AT IOWA STATE UNIVERSITY
  AND ALSO IN THEIR VARIOUS JOBS AFTER LEAVING ISU HAVE MADE IMPORTANT
  CONTRIBUTIONS TO THE CODE:
     IVANA ADAMOVIC, CHRISTINE AIKENS, YURI ALEXEEV, POOJA ARORA,
     ANDREY ASADCHEV, ROB BELL, PRADIPTA BANDYOPADHYAY, JONATHAN BENTZ,
     COLLEEN BERTONI, BRETT BODE, KURT BRORSEN, CALEB CARLIN, GALINA CHABAN,
     WEI CHEN, CHEOL HO CHOI, PAUL DAY, ALBERT DEFUSCO, NUWAN DESILVA,
     TIM DUDLEY, DMITRI FEDOROV, ALEX FINDLATER, GRAHAM FLETCHER, 
     MARK FREITAG, KURT GLAESEMANN, ANASTASIA GUNINA,
     DAN KEMP, GRANT MERRILL, NORIYUKI MINEZAWA, JONATHAN MULLIN,
     TAKESHI NAGATA, SEAN NEDD, HEATHER NETZLOFF, BOSILJKA NJEGIC, RYAN OLSON,
     MIKE PAK, BUU PHAM,
     SPENCER PRUITT, LUKE ROSKOP, JIM SHOEMAKER, LYUDMILA SLIPCHENKO,
     TONY SMITH, SAROM SOK LEANG, JIE SONG, TETSUYA TAKETSUGU, SIMON WEBB,
     PENG XU, SOOHAENG YOO, FEDERICO ZAHARIEV

  ADDITIONAL CODE HAS BEEN PROVIDED BY COLLABORATORS IN OTHER GROUPS:
     IOWA STATE UNIVERSITY:
          JOE IVANIC, AARON WEST, LAIMUTIS BYTAUTAS, KLAUS RUEDENBERG
     UNIVERSITY OF TOKYO: KIMIHIKO HIRAO, TAKAHITO NAKAJIMA,
          TAKAO TSUNEDA, MUNEAKI KAMIYA, SUSUMU YANAGISAWA,
          KIYOSHI YAGI, MAHITO CHIBA, SEIKEN TOKURA, NAOAKI KAWAKAMI
     UNIVERSITY OF AARHUS: FRANK JENSEN
     UNIVERSITY OF IOWA: VISVALDAS KAIRYS, HUI LI
     NATIONAL INST. OF STANDARDS AND TECHNOLOGY: WALT STEVENS, DAVID GARMER
     UNIVERSITY OF PISA: BENEDETTA MENNUCCI, JACOPO TOMASI
     UNIVERSITY OF MEMPHIS: HENRY KURTZ, PRAKASHAN KORAMBATH
     UNIVERSITY OF ALBERTA: TOBY ZENG, MARIUSZ KLOBUKOWSKI
     UNIVERSITY OF NEW ENGLAND: MARK SPACKMAN
     MIE UNIVERSITY: HIROAKI UMEDA
     NAT. INST. OF ADVANCED INDUSTRIAL SCIENCE AND TECHNOLOGY: KAZUO KITAURA
     MICHIGAN STATE UNIVERSITY:
          KAROL KOWALSKI, MARTA WLOCH, JEFFREY GOUR, JESSE LUTZ,
          WEI LI, JUN SHEN, J. EMILIANO DEUSTUA, PIOTR PIECUCH
     UNIVERSITY OF MINNESOTA:
          YINAN SHU
     UNIVERSITY OF SILESIA: MONIKA MUSIAL, STANISLAW KUCHARSKI
     FACULTES UNIVERSITAIRES NOTRE-DAME DE LA PAIX:
          OLIVIER QUINET, BENOIT CHAMPAGNE
     UNIVERSITY OF CALIFORNIA - SANTA BARBARA: BERNARD KIRTMAN
     INSTITUTE FOR MOLECULAR SCIENCE:
          KAZUYA ISHIMURA, MICHIO KATOUDA, AND SHIGERU NAGASE
     UNIVERSITY OF NOTRE DAME: ANNA POMOGAEVA, DAN CHIPMAN
     KYUSHU UNIVERSITY:
          HARUYUKI NAKANO,
          FENG LONG GU, JACEK KORCHOWIEC, MARCIN MAKOWSKI, AND YURIKO AOKI,
          HIROTOSHI MORI AND EISAKU MIYOSHI
     PENNSYLVANIA STATE UNIVERSITY:
          TZVETELIN IORDANOV, CHET SWALINA, JONATHAN SKONE,
          SHARON HAMMES-SCHIFFER
     WASEDA UNIVERSITY:
          MASATO KOBAYASHI, TOMOKO AKAMA, TSUGUKI TOUMA,
          TAKESHI YOSHIKAWA, YASUHIRO IKABATA, JUNJI SEINO,
          YUYA NAKAJIMA, HIROMI NAKAI
     NANJING UNIVERSITY: SHUHUA LI
     UNIVERSITY OF NEBRASKA:
          PEIFENG SU, DEJUN SI, NANDUN THELLAMUREGE, YALI WANG, HUI LI
     UNIVERSITY OF ZURICH: ROBERTO PEVERATI, KIM BALDRIDGE
     N. COPERNICUS UNIVERSITY AND JACKSON STATE UNIVERSITY:
          MARIA BARYSZ
     UNIVERSITY OF COPENHAGEN: Jimmy Kromann, CASPER STEINMANN
     TOKYO INSTITUTE OF TECHNOLOGY: HIROYA NAKATA
     NAGOYA UNIVERSITY: YOSHIO NISHIMOTO, STEPHAN IRLE
     MOSCOW STATE UNIVERSITY: VLADIMIR MIRONOV
     A.N.NESMEYANOV INSTITUTE OF ORGANOELEMENT COMPOUNDS OF RUSSIAN ACADEMY OF SCIENCES:
          IGOR S. GERASIMOV

 EXECUTION OF GAMESS BEGUN Fri Sep 11 09:16:14 2020

            ECHO OF THE FIRST FEW INPUT CARDS -
 INPUT CARD>!   File created by the GAMESS Input Deck Generator Plugin for Avogadro         
 INPUT CARD> $BASIS GBASIS=PM3 $END                                                         
 INPUT CARD> $CONTRL SCFTYP=RHF RUNTYP=SURFACE MULT=1 ICHARG=-1  NZVAR=1 $END               
 INPUT CARD> $CONTRL EXETYP=RUN $END                                                        
 INPUT CARD> $STATPT OPTTOL=0.0005 NSTEP=50 NOREG=5 $END                                    
 INPUT CARD> $ZMAT DLC=.t. auto=.t. nonvdw(1)=1,2 1,6 ifzmat(1)=1,1,6 SCAN=.T.  $END        
 INPUT CARD> $surf ndisp1=5 disp1=0.1  ivec1(1)=1,6 orig1=2.00  IGRP1(1)=6 $end             
 INPUT CARD> $DATA                                                                          
 INPUT CARD>Title                                                                           
 INPUT CARD>C1                                                                              
 INPUT CARD>C     6.0    -1.54658     1.09202     0.00047                                   
 INPUT CARD>Br   35.0     0.38663     1.10084     0.00241                                   
 INPUT CARD>H     1.0    -1.92083     2.04168    -0.43391                                   
 INPUT CARD>H     1.0    -1.91747     0.99029     1.04104                                   
 INPUT CARD>H     1.0    -1.91229     0.23861    -0.60702                                   
 INPUT CARD>Cl   17.0    -5.21361     1.02852    -0.01116                                   
 INPUT CARD> $END                                                                           
    1000000 WORDS OF MEMORY AVAILABLE

     BASIS OPTIONS
     -------------
     GBASIS=PM3          IGAUSS=       0      POLAR=NONE    
     NDFUNC=       0     NFFUNC=       0     DIFFSP=       F
     NPFUNC=       0      DIFFS=       F     BASNAM=        


     RUN TITLE
     ---------
 Title                                                                           

 THE POINT GROUP OF THE MOLECULE IS C1      
 THE ORDER OF THE PRINCIPAL AXIS IS     0

 ATOM      ATOMIC                      COORDINATES (BOHR)
           CHARGE         X                   Y                   Z
 C           6.0    -2.9226124181        2.0636185731        0.0008881712
 BR         35.0     0.7306247586        2.0802859563        0.0045542396
 H           1.0    -3.6298423690        3.8582157546       -0.8199710033
 H           1.0    -3.6234928897        1.8713767484        1.9672803423
 H           1.0    -3.6137041091        0.4509075179       -1.1471014691
 CL         17.0    -9.8522943068        1.9436209729       -0.0210893420

          INTERNUCLEAR DISTANCES (ANGS.)
          ------------------------------

                1 C          2 BR         3 H          4 H          5 H     

   1 C       0.0000000    1.9332311 *  1.1093255 *  1.1093666 *  1.1095479 *
   2 BR      1.9332311 *  0.0000000    2.5298076 *  2.5297926 *  2.5297981 *
   3 H       1.1093255 *  2.5298076 *  0.0000000    1.8113282 *  1.8113811 *
   4 H       1.1093666 *  2.5297926 *  1.8113282 *  0.0000000    1.8113949 *
   5 H       1.1095479 *  2.5297981 *  1.8113811 *  1.8113949 *  0.0000000  
   6 CL      3.6675982    5.6007234    3.4709669    3.4602204    3.4464069  

                6 CL    

   1 C       3.6675982  
   2 BR      5.6007234  
   3 H       3.4709669  
   4 H       3.4602204  
   5 H       3.4464069  
   6 CL      0.0000000  

  * ... LESS THAN  3.000


 TOTAL NUMBER OF BASIS SET SHELLS             =    6
 NUMBER OF CARTESIAN GAUSSIAN BASIS FUNCTIONS =   15
 NUMBER OF ELECTRONS                          =   22
 CHARGE OF MOLECULE                           =   -1
 SPIN MULTIPLICITY                            =    1
 NUMBER OF OCCUPIED ORBITALS (ALPHA)          =   11
 NUMBER OF OCCUPIED ORBITALS (BETA )          =   11
 TOTAL NUMBER OF ATOMS                        =    6
 THE NUCLEAR REPULSION ENERGY IS      167.6452141257

 THE PARAMETERS USED IN THIS CALCULATION ARE DESCRIBED IN:

  H: (PM3): J. J. P. STEWART, J. COMP. CHEM.     10, 209 (1989).                
  C: (PM3): J. J. P. STEWART, J. COMP. CHEM.     10, 209 (1989).                
 CL: (PM3): J. J. P. STEWART, J. COMP. CHEM.     10, 209 (1989).                
 BR: (PM3): J. J. P. STEWART, J. COMP. CHEM.     10, 209 (1989).                

 THERE ARE    3 HEAVY AND    3 LIGHT ATOMS,
 YIELDING A TOTAL OF       393 MOPAC 2E- INTEGRALS.

     $CONTRL OPTIONS
     ---------------
 SCFTYP=RHF          RUNTYP=SURFACE      EXETYP=RUN     
 MPLEVL=       0     CITYP =NONE         CCTYP =NONE         VBTYP =NONE    
 DFTTYP=NONE         TDDFT =NONE    
 MULT  =       1     ICHARG=      -1     NZVAR =       1     COORD =UNIQUE  
 PP    =NONE         RELWFN=NONE         LOCAL =NONE         NUMGRD=       F
 ISPHER=      -1     NOSYM =       0     MAXIT =      30     UNITS =ANGS    
 PLTORB=       F     MOLPLT=       F     AIMPAC=       F     FRIEND=        
 NPRINT=       7     IREST =       0     GEOM  =INPUT   
 NORMF =       0     NORMP =       0     ITOL  =      20     ICUT  =       9
 INTTYP=BEST         GRDTYP=BEST         QMTTOL= 1.0E-06

     $SYSTEM OPTIONS
     ---------------
  REPLICATED MEMORY=     1000000 WORDS (ON EVERY NODE).
 DISTRIBUTED MEMDDI=           0 MILLION WORDS IN AGGREGATE,
 MEMDDI DISTRIBUTED OVER   1 PROCESSORS IS           0 WORDS/PROCESSOR.
 TOTAL MEMORY REQUESTED ON EACH PROCESSOR=     1000000 WORDS.
 TIMLIM=      525600.00 MINUTES, OR     365.0 DAYS.
 PARALL= F  BALTYP=  DLB     KDIAG=    0  COREFL= F
 MXSEQ2=     300 MXSEQ3=     150  mem10=         0

          ----------------
          PROPERTIES INPUT
          ----------------

     MOMENTS            FIELD           POTENTIAL          DENSITY
 IEMOM =       1   IEFLD =       0   IEPOT =       0   IEDEN =       0
 WHERE =COMASS     WHERE =NUCLEI     WHERE =NUCLEI     WHERE =NUCLEI  
 OUTPUT=BOTH       OUTPUT=BOTH       OUTPUT=BOTH       OUTPUT=BOTH    
 IEMINT=       0   IEFINT=       0                     IEDINT=       0
                                                       MORB  =       0
          EXTRAPOLATION IN EFFECT
 ORBITAL PRINTING OPTION: NPREO=     1    15     2     1

     -------------------------------
     INTEGRAL TRANSFORMATION OPTIONS
     -------------------------------
     NWORD  =            0
     CUTOFF = 1.0E-09     MPTRAN =       0
     DIRTRF =       F     AOINTS =DUP     

          ----------------------
          INTEGRAL INPUT OPTIONS
          ----------------------
 NOPK  =       1 NORDER=       0 SCHWRZ=       T
 **** ERROR READING INPUT GROUP $ZMAT     *****
 THE PROBLEM IS WITH THIS INPUT LINE, NEAR THE X MARKER
 $ZMAT DLC=.T. AUTO=.T. NONVDW(1)=1,2 1,6 IFZMAT(1)=1,1,6 SCAN=.T.  $END        
                                                               X
 THE ONLY KEYWORDS ACCEPTED IN THIS GROUP ARE:
  IZMAT     SIJ       IJS       DLC       AUTO      NONVDW  
  IXZMAT    IFZMAT    IRZMAT    FVALUE  
 
 
 -----------------------------------------------
  STATISTICS ON AUTOMATIC COORDINATE GENERATION 
 -----------------------------------------------
  NUMBER OF USER SPECIFIED BONDS                                 2
  NUMBER OF BONDS                                                6
  NUMBER OF ANGLES                                              14
  NUMBER OF TORSIONS                                             0
  NUMBER OF EXTRA COORD.                                         0
  NUMBER OF EXTRA COORD. FOR CONSTRAINTS                         0
  NUMBER OF CONSTRAINED COORD.                                   1
 
  TOTAL NUMBER OF PRIMITIVES                                    20
 -----------------------------------------------

   --- ENCODED Z MATRIX ---
 COORD  TYPE   I   J   K   L   M   N
    1      1    1   6
    2      1    1   3
    3      1    1   4
    4      1    1   5
    5      1    1   2
    6      1    1   2
    7      2    2   1   5
    8      2    2   1   6
    9      2    2   1   5
   10      2    2   1   3
   11      2    2   1   3
   12      2    2   1   4
   13      2    2   1   6
   14      2    2   1   4
   15      2    3   1   5
   16      2    3   1   6
   17      2    3   1   4
   18      2    4   1   5
   19      2    4   1   6
   20      2    5   1   6

          INDEP./SYM. INTERNAL COORDINATES
          --------------------------------
 CRD  1=   1.0000 (  1)
 CRD  2=   0.4939 (  8)  0.4939 ( 13) -0.4220 ( 16)  0.2497 ( 17) -0.2295 ( 18)
           0.4605 ( 20)
 CRD  3=  -0.2576 (  2)  0.4599 (  3) -0.2023 (  4)  0.1591 ( 12)  0.1591 ( 14)
          -0.6336 ( 15)  0.2811 ( 17)  0.3525 ( 18)
 CRD  4=  -0.4025 (  2)  0.4321 (  4)  0.1646 (  8)  0.1646 ( 13) -0.5521 ( 17)
           0.5077 ( 18)
 CRD  5=   0.1716 (  3) -0.2080 (  7) -0.2080 (  9) -0.2359 ( 10) -0.2359 ( 11)
           0.4433 ( 12)  0.4433 ( 14)  0.3502 ( 15)  0.1862 ( 16) -0.1612 ( 17)
          -0.1884 ( 18) -0.3468 ( 19)  0.1612 ( 20)
 CRD  6=  -0.3002 (  2) -0.3064 (  3) -0.3140 (  4)  0.2251 (  7)  0.2251 (  9)
           0.2614 ( 10)  0.2614 ( 11)  0.2450 ( 12)  0.2450 ( 14) -0.2436 ( 15)
          -0.2564 ( 16) -0.2543 ( 17) -0.2344 ( 18) -0.2446 ( 19) -0.2304 ( 20)
 CRD  7=  -0.2247 (  2)  0.2101 (  4)  0.3949 (  7)  0.1149 (  8)  0.3949 (  9)
          -0.3580 ( 10) -0.3580 ( 11)  0.1149 ( 13)  0.2607 ( 16)  0.2730 ( 17)
          -0.2847 ( 18) -0.2932 ( 20)
 CRD  8=   0.4832 (  2)  0.4884 (  3)  0.4950 (  4)  0.1518 (  7)  0.1518 (  9)
           0.1547 ( 10)  0.1547 ( 11)  0.1535 ( 12)  0.1535 ( 14) -0.1537 ( 15)
          -0.1538 ( 16) -0.1511 ( 17) -0.1558 ( 18) -0.1534 ( 19) -0.1528 ( 20)
 CRD  9=  -0.7062 (  5) -0.7062 (  6)
 CRD 10=  -0.3653 (  2)  0.6476 (  3) -0.2824 (  4)  0.1085 (  7)  0.1085 (  9)
           0.1401 ( 10)  0.1401 ( 11) -0.2486 ( 12) -0.2486 ( 14)  0.3450 ( 15)
          -0.1504 ( 17) -0.1946 ( 18)
 CRD 11=  -0.5038 (  2)  0.5429 (  4) -0.2273 (  7) -0.2213 (  8) -0.2273 (  9)
           0.2019 ( 10)  0.2019 ( 11) -0.2213 ( 13)  0.3016 ( 17) -0.2703 ( 18)
 CRD 12=  -0.1232 ( 10) -0.1232 ( 11)  0.2203 ( 12)  0.2203 ( 14)  0.1444 ( 15)
          -0.4157 ( 16)  0.7361 ( 19) -0.3205 ( 20)

 THE DETERMINANT OF THE G MATRIX IS 10**(    -7)


                     --------------------
                     INTERNAL COORDINATES
                     --------------------

                 - - ATOMS - -         COORDINATE      COORDINATE
 NO.   TYPE    I  J  K  L  M  N        (BOHR,RAD)       (ANG,DEG)
 ----------------------------------------------------------------
   1 STRETCH   1  6                     6.9307556       3.6675982
   2 STRETCH   1  3                     2.0963213       1.1093255
   3 STRETCH   1  4                     2.0963989       1.1093666
   4 STRETCH   1  5                     2.0967415       1.1095479
   5 STRETCH   1  2                     3.6532770       1.9332311
   6 STRETCH   1  2                     3.6532770       1.9332311
   7 BEND      2  1  5                  1.9109773     109.4909312
   8 BEND      2  1  6                  3.1286574     179.2588636
   9 BEND      2  1  5                  1.9109773     109.4909312
  10 BEND      2  1  3                  1.9111821     109.5026683
  11 BEND      2  1  3                  1.9111821     109.5026683
  12 BEND      2  1  4                  1.9111276     109.4995439
  13 BEND      2  1  6                  3.1286574     179.2588636
  14 BEND      2  1  4                  1.9111276     109.4995439
  15 BEND      3  1  5                  1.9101314     109.4424677
  16 BEND      3  1  6                  1.2411222      71.1110617
  17 BEND      3  1  4                  1.9102798     109.4509696
  18 BEND      4  1  5                  1.9101006     109.4407029
  19 BEND      4  1  6                  1.2314323      70.5558749
  20 BEND      5  1  6                  1.2189786      69.8423309

     ------------------------------------------
     THE POINT GROUP IS C1 , NAXIS= 0, ORDER= 1
     ------------------------------------------

     DIMENSIONS OF THE SYMMETRY SUBSPACES ARE
 A   =   15

 ..... DONE SETTING UP THE RUN .....
 STEP CPU TIME =     0.87 TOTAL CPU TIME =          0.9 (      0.0 MIN)
 TOTAL WALL CLOCK TIME=          0.9 SECONDS, CPU UTILIZATION IS   100.00%

     ---------------------------
     POTENTIAL SURFACE MAP INPUT
     ---------------------------
 JOB 1 IS RUNTYP=ENERGY   SCFTYP=RHF       CITYP=NONE    
          MPLEVL=       0  CCTYP=NONE     DFTTYP=NONE    
 COORD 1 LYING ALONG ATOM PAIR    1    6
 HAS ORIGIN= 2.000, DISPLACEMENT= 0.100  AND  5 STEPS.
 GROUP 1 CONTAINS    1 ATOMS:
     6

 ATOM      ATOMIC                      COORDINATES (BOHR)
           CHARGE         X                   Y                   Z
 C           6.0    -2.9226124181        2.0636185731        0.0008881712
 BR         35.0     0.7306247586        2.0802859563        0.0045542396
 H           1.0    -3.6298423690        3.8582157546       -0.8199710033
 H           1.0    -3.6234928897        1.8713767484        1.9672803423
 H           1.0    -3.6137041091        0.4509075179       -1.1471014691
 CL         17.0   -13.6311607575        1.8781843608       -0.0330740318

          INTERNUCLEAR DISTANCES (ANGS.)
          ------------------------------

                1 C          2 BR         3 H          4 H          5 H     

   1 C       0.0000000    1.9332311 *  1.1093255 *  1.1093666 *  1.1095479 *
   2 BR      1.9332311 *  0.0000000    2.5298076 *  2.5297926 *  2.5297981 *
   3 H       1.1093255 *  2.5298076 *  0.0000000    1.8113282 *  1.8113811 *
   4 H       1.1093666 *  2.5297926 *  1.8113282 *  0.0000000    1.8113949 *
   5 H       1.1095479 *  2.5297981 *  1.8113811 *  1.8113949 *  0.0000000  
   6 CL      5.6675982    7.6007087    5.4112378    5.4005871    5.3869000  

                6 CL    

   1 C       5.6675982  
   2 BR      7.6007087  
   3 H       5.4112378  
   4 H       5.4005871  
   5 H       5.3869000  
   6 CL      0.0000000  

  * ... LESS THAN  3.000


          ********************
          1 ELECTRON INTEGRALS
          ********************

          **************************
          1 AND 2 ELECTRON INTEGRALS
          **************************

 MOPAC ONE- AND TWO-ELECTRON INTEGRALS REQUIRE       633 WORDS.
 ...... END OF ONE- AND TWO-ELECTRON INTEGRALS......
 STEP CPU TIME =     0.41 TOTAL CPU TIME =          1.3 (      0.0 MIN)
 TOTAL WALL CLOCK TIME=          1.3 SECONDS, CPU UTILIZATION IS   100.00%
 ...... END OF ONE-ELECTRON INTEGRALS ......
 STEP CPU TIME =     0.04 TOTAL CPU TIME =          1.3 (      0.0 MIN)
 TOTAL WALL CLOCK TIME=          1.3 SECONDS, CPU UTILIZATION IS   100.00%

          -------------
          GUESS OPTIONS
          -------------
          GUESS =HUCKEL            NORB  =       0          NORDER=       0
          MIX   =       F          PRTMO =       F          PUNMO =       F
          TOLZ  = 1.0E-08          TOLE  = 1.0E-05
          SYMDEN=       F          PURIFY=       F

 INITIAL GUESS ORBITALS GENERATED BY HUCKEL   ROUTINE.

 SYMMETRIES FOR INITIAL GUESS ORBITALS FOLLOW.   BOTH SET(S).
    11 ORBITALS ARE OCCUPIED (    0 CORE ORBITALS).
     1=A        2=A        3=A        4=A        5=A        6=A        7=A   
     8=A        9=A       10=A       11=A       12=A       13=A       14=A   
    15=A   
 ...... END OF INITIAL ORBITAL SELECTION ......
 STEP CPU TIME =     0.56 TOTAL CPU TIME =          1.9 (      0.0 MIN)
 TOTAL WALL CLOCK TIME=          1.9 SECONDS, CPU UTILIZATION IS   100.00%

          --------------------------
               R-PM3 SCF CALCULATION
          --------------------------

     NUCLEAR ENERGY =        24.0481198748
     MAXIT =   30     NPUNCH=    2
     EXTRAP=T  DAMP=F  SHIFT=F  RSTRCT=F  DIIS=F  DEM=F  SOSCF=F
     DENSITY MATRIX CONV=  1.00E-05
     MEMORY REQUIRED FOR RHF ITERS=      2274 WORDS.

 ITER EX DEM     TOTAL ENERGY        E CHANGE  DENSITY CHANGE    DIIS ERROR
   1  0  0      -30.6807809863   -30.6807809863   0.273695304   0.000000000
   2  1  0      -30.7572186124    -0.0764376261   0.068285667   0.000000000
   3  2  0      -30.7645953523    -0.0073767399   0.033158467   0.000000000
   4  3  0      -30.7659620983    -0.0013667460   0.017901808   0.000000000
   5  0  0      -30.7663337481    -0.0003716498   0.021730002   0.000000000
   6  1  0      -30.7664993564    -0.0001656084   0.000205843   0.000000000
   7  2  0      -30.7664994398    -0.0000000834   0.000111121   0.000000000
   8  3  0      -30.7664994612    -0.0000000214   0.000060278   0.000000000
   9  4  0      -30.7664994673    -0.0000000061   0.000032980   0.000000000
  10  5  0      -30.7664994691    -0.0000000018   0.000019227   0.000000000
  11  6  0      -30.7664994697    -0.0000000006   0.000011625   0.000000000
  12  7  0      -30.7664994699    -0.0000000002   0.000006891   0.000000000

          -----------------
          DENSITY CONVERGED
          -----------------
     TIME TO FORM FOCK OPERATORS=       0.2 SECONDS (       0.0 SEC/ITER)
     TIME TO SOLVE SCF EQUATIONS=       0.9 SECONDS (       0.1 SEC/ITER)

 FINAL R-PM3 ENERGY IS      -30.7664994699 AFTER  12 ITERATIONS

 HEAT OF FORMATION IS       -55.75317 KCAL/MOL
 

          ------------
          EIGENVECTORS
          ------------

                      1          2          3          4          5
                   -1.7242    -0.9856    -0.6707    -0.4552    -0.4551
                     A          A          A          A          A   
    1  C  1  S    0.000267   0.761429  -0.090308  -0.000150   0.000213
    2  C  1  X   -0.000043  -0.020274   0.127688  -0.002166   0.003291
    3  C  1  Y   -0.000002   0.000011   0.000536   0.493428  -0.476671
    4  C  1  Z   -0.000000   0.000000   0.000118  -0.476619  -0.493517
    5  BR 2  S    0.000025   0.160815   0.977345   0.000055  -0.000087
    6  BR 2  X   -0.000047  -0.217786   0.085450  -0.000364   0.000531
    7  BR 2  Y   -0.000000  -0.000980   0.000413   0.241044  -0.233071
    8  BR 2  Z   -0.000000  -0.000216   0.000089  -0.232826  -0.241300
    9  H  3  S    0.000325   0.339991  -0.065971   0.497170  -0.175974
   10  H  4  S    0.000330   0.339887  -0.065927  -0.400792  -0.342490
   11  H  5  S    0.000336   0.339713  -0.065855  -0.096102   0.518073
   12  CL 6  S    1.000000  -0.000556   0.000075   0.000003  -0.000005
   13  CL 6  X    0.000519   0.000329  -0.000100  -0.000010   0.000014
   14  CL 6  Y    0.000011   0.000005  -0.000002   0.000088  -0.000087
   15  CL 6  Z    0.000002   0.000001  -0.000000  -0.000085  -0.000090

                      6          7          8          9         10
                   -0.4223    -0.3317    -0.3317    -0.1334    -0.1332
                     A          A          A          A          A   
    1  C  1  S   -0.029273   0.000045   0.000064  -0.001041   0.000003
    2  C  1  X   -0.612794   0.000472   0.000716   0.000455  -0.000000
    3  C  1  Y   -0.003634  -0.159289  -0.153383   0.000029  -0.000144
    4  C  1  Z   -0.000811   0.153138  -0.159557   0.000005  -0.000166
    5  BR 2  S    0.045244  -0.000018  -0.000025   0.000060  -0.000000
    6  BR 2  X    0.737964  -0.002355  -0.003520  -0.000495   0.000001
    7  BR 2  Y    0.002749   0.678830   0.652500  -0.000007   0.000026
    8  BR 2  Z    0.000598  -0.652596   0.678744  -0.000001   0.000030
    9  H  3  S    0.159755  -0.195596  -0.068718   0.000347   0.000003
   10  H  4  S    0.160103   0.157327  -0.135094   0.000349   0.000009
   11  H  5  S    0.160660   0.038324   0.203912   0.000350  -0.000016
   12  CL 6  S   -0.000144  -0.000001  -0.000002  -0.000519  -0.000001
   13  CL 6  X    0.000443   0.000007   0.000010   0.999815  -0.014945
   14  CL 6  Y    0.000007  -0.000056  -0.000056   0.018895   0.653812
   15  CL 6  Z    0.000001   0.000054  -0.000058   0.003421   0.756509

                     11         12         13         14         15
                   -0.1332     0.0759     0.2166     0.2236     0.2237
                     A          A          A          A          A   
    1  C  1  S    0.000002   0.336764   0.545668   0.004920  -0.004962
    2  C  1  X   -0.000000   0.670708  -0.397366  -0.001391   0.000905
    3  C  1  Y   -0.000162   0.003251   0.007041  -0.541296   0.432826
    4  C  1  Z    0.000140   0.000716   0.000619   0.433014   0.541168
    5  BR 2  S   -0.000000  -0.128545   0.019107   0.000158  -0.000157
    6  BR 2  X    0.000001   0.632141  -0.032496  -0.000332   0.000347
    7  BR 2  Y    0.000029   0.002888  -0.000574   0.024599  -0.019648
    8  BR 2  Z   -0.000025   0.000632  -0.000083  -0.019682  -0.024571
    9  H  3  S    0.000013  -0.082943  -0.431731   0.566226  -0.139729
   10  H  4  S   -0.000011  -0.082866  -0.425509  -0.413277  -0.418137
   11  H  5  S   -0.000004  -0.082756  -0.418837  -0.164523   0.569580
   12  CL 6  S   -0.000001   0.000054   0.000256   0.000005  -0.000006
   13  CL 6  X   -0.012057   0.000453   0.001176   0.000026  -0.000029
   14  CL 6  Y    0.756421   0.000007   0.000020  -0.000126   0.000104
   15  CL 6  Z   -0.653974   0.000001   0.000004   0.000101   0.000130
 ...... END OF RHF CALCULATION ......
 STEP CPU TIME =     1.30 TOTAL CPU TIME =          3.2 (      0.1 MIN)
 TOTAL WALL CLOCK TIME=          3.2 SECONDS, CPU UTILIZATION IS   100.00%

     ----------------------------------------------------------------
     PROPERTY VALUES FOR THE RHF   SELF-CONSISTENT FIELD WAVEFUNCTION
     ----------------------------------------------------------------

                    -------------
                    MOPAC CHARGES
                    -------------
         ATOM NO.   TYPE          CHARGE        ATOM  ELECTRON DENSITY
           1         C             -0.0405          4.0405
           2         BR            -0.1609          7.1609
           3         H              0.0668          0.9332
           4         H              0.0671          0.9329
           5         H              0.0675          0.9325
           6         CL            -1.0000          8.0000

          ---------------------
          ELECTROSTATIC MOMENTS
          ---------------------

 POINT   1           X           Y           Z (ANGS)      CHARGE
                -1.911255    1.070702   -0.003238       -1.00 (A.U.)
         DX          DY          DZ         /D/  (DEBYE)
    23.459970    0.357297    0.066045   23.462783
 ...... END OF PROPERTY EVALUATION ......
 STEP CPU TIME =     0.08 TOTAL CPU TIME =          3.3 (      0.1 MIN)
 TOTAL WALL CLOCK TIME=          3.3 SECONDS, CPU UTILIZATION IS   100.00%
 ---- SURFACE MAPPING GEOMETRY ----
 COORD 1= 2.000 COORD 2= 0.000
 HAS ENERGY VALUE     -30.766499
 C     -1.54658   1.09202   0.00047
 BR     0.38663   1.10084   0.00241
 H     -1.92083   2.04168  -0.43391
 H     -1.91747   0.99029   1.04104
 H     -1.91229   0.23861  -0.60702
 CL    -7.21330   0.99389  -0.01750
 ----------------------------------

 ATOM      ATOMIC                      COORDINATES (BOHR)
           CHARGE         X                   Y                   Z
 C           6.0    -2.9226124181        2.0636185731        0.0008881712
 BR         35.0     0.7306247586        2.0802859563        0.0045542396
 H           1.0    -3.6298423690        3.8582157546       -0.8199710033
 H           1.0    -3.6234928897        1.8713767484        1.9672803423
 H           1.0    -3.6137041091        0.4509075179       -1.1471014691
 CL         17.0   -13.8201040800        1.8749125302       -0.0336732663

          INTERNUCLEAR DISTANCES (ANGS.)
          ------------------------------

                1 C          2 BR         3 H          4 H          5 H     

   1 C       0.0000000    1.9332311 *  1.1093255 *  1.1093666 *  1.1095479 *
   2 BR      1.9332311 *  0.0000000    2.5298076 *  2.5297926 *  2.5297981 *
   3 H       1.1093255 *  2.5298076 *  0.0000000    1.8113282 *  1.8113811 *
   4 H       1.1093666 *  2.5297926 *  1.8113282 *  0.0000000    1.8113949 *
   5 H       1.1095479 *  2.5297981 *  1.8113811 *  1.8113949 *  0.0000000  
   6 CL      5.7675982    7.7007082    5.5093728    5.4987273    5.4850470  

                6 CL    

   1 C       5.7675982  
   2 BR      7.7007082  
   3 H       5.5093728  
   4 H       5.4987273  
   5 H       5.4850470  
   6 CL      0.0000000  

  * ... LESS THAN  3.000


          ********************
          1 ELECTRON INTEGRALS
          ********************

          **************************
          1 AND 2 ELECTRON INTEGRALS
          **************************

 MOPAC ONE- AND TWO-ELECTRON INTEGRALS REQUIRE       633 WORDS.
 ...... END OF ONE- AND TWO-ELECTRON INTEGRALS......
 STEP CPU TIME =     0.05 TOTAL CPU TIME =          3.3 (      0.1 MIN)
 TOTAL WALL CLOCK TIME=          3.3 SECONDS, CPU UTILIZATION IS   100.00%
 ...... END OF ONE-ELECTRON INTEGRALS ......
 STEP CPU TIME =     0.01 TOTAL CPU TIME =          3.3 (      0.1 MIN)
 TOTAL WALL CLOCK TIME=          3.3 SECONDS, CPU UTILIZATION IS   100.00%

          --------------------------
               R-PM3 SCF CALCULATION
          --------------------------

     NUCLEAR ENERGY =        23.9266094958
     MAXIT =   30     NPUNCH=    2
     EXTRAP=T  DAMP=F  SHIFT=F  RSTRCT=F  DIIS=F  DEM=F  SOSCF=F
     DENSITY MATRIX CONV=  1.00E-05
     MEMORY REQUIRED FOR RHF ITERS=      2274 WORDS.

 ITER EX DEM     TOTAL ENERGY        E CHANGE  DENSITY CHANGE    DIIS ERROR
   1  0  0      -30.7663366624   -30.7663366624   0.000947848   0.000000000
   2  1  0      -30.7663371144    -0.0000004520   0.000385593   0.000000000
   3  2  0      -30.7663371826    -0.0000000682   0.000172529   0.000000000
   4  3  0      -30.7663371965    -0.0000000140   0.000081335   0.000000000
   5  4  0      -30.7663372000    -0.0000000035   0.000040116   0.000000000
   6  5  0      -30.7663372010    -0.0000000010   0.000020524   0.000000000
   7  6  0      -30.7663372013    -0.0000000003   0.000010800   0.000000000
   8  7  0      -30.7663372014    -0.0000000001   0.000005804   0.000000000

          -----------------
          DENSITY CONVERGED
          -----------------
     TIME TO FORM FOCK OPERATORS=       0.1 SECONDS (       0.0 SEC/ITER)
     TIME TO SOLVE SCF EQUATIONS=       0.5 SECONDS (       0.1 SEC/ITER)

 FINAL R-PM3 ENERGY IS      -30.7663372014 AFTER   8 ITERATIONS

 HEAT OF FORMATION IS       -55.65134 KCAL/MOL
 

          ------------
          EIGENVECTORS
          ------------

                      1          2          3          4          5
                   -1.7240    -0.9871    -0.6721    -0.4566    -0.4565
                     A          A          A          A          A   
    1  C  1  S    0.000223   0.761407  -0.090282  -0.000145   0.000207
    2  C  1  X   -0.000036  -0.020481   0.127783  -0.002150   0.003275
    3  C  1  Y   -0.000001   0.000007   0.000538   0.493077  -0.477298
    4  C  1  Z   -0.000000  -0.000000   0.000118  -0.477248  -0.493163
    5  BR 2  S    0.000021   0.160787   0.977347   0.000053  -0.000085
    6  BR 2  X   -0.000039  -0.217588   0.085292  -0.000378   0.000552
    7  BR 2  Y   -0.000000  -0.000980   0.000412   0.239933  -0.232462
    8  BR 2  Z   -0.000000  -0.000216   0.000089  -0.232224  -0.240182
    9  H  3  S    0.000273   0.340047  -0.065976   0.497321  -0.176594
   10  H  4  S    0.000277   0.339945  -0.065933  -0.401413  -0.342313
   11  H  5  S    0.000282   0.339775  -0.065863  -0.095644   0.518532
   12  CL 6  S    1.000000  -0.000466   0.000063   0.000003  -0.000004
   13  CL 6  X    0.000493   0.000274  -0.000083  -0.000009   0.000012
   14  CL 6  Y    0.000010   0.000004  -0.000001   0.000072  -0.000071
   15  CL 6  Z    0.000002   0.000001  -0.000000  -0.000070  -0.000074

                      6          7          8          9         10
                   -0.4234    -0.3327    -0.3327    -0.1332    -0.1331
                     A          A          A          A          A   
    1  C  1  S   -0.029755   0.000043   0.000062  -0.000877   0.000002
    2  C  1  X   -0.613393   0.000472   0.000718   0.000383  -0.000000
    3  C  1  Y   -0.003610  -0.158451  -0.152841   0.000024  -0.000118
    4  C  1  Z   -0.000807   0.152605  -0.158711   0.000004  -0.000137
    5  BR 2  S    0.045484  -0.000018  -0.000025   0.000050  -0.000000
    6  BR 2  X    0.737489  -0.002356  -0.003528  -0.000414   0.000001
    7  BR 2  Y    0.002768   0.678559   0.653405  -0.000006   0.000021
    8  BR 2  Z    0.000601  -0.653497   0.678476  -0.000001   0.000024
    9  H  3  S    0.159684  -0.194957  -0.068688   0.000296   0.000003
   10  H  4  S    0.160019   0.156981  -0.134554   0.000297   0.000008
   11  H  5  S    0.160559   0.038029   0.203340   0.000299  -0.000013
   12  CL 6  S   -0.000121  -0.000001  -0.000001  -0.000493  -0.000001
   13  CL 6  X    0.000369   0.000006   0.000008   0.999814  -0.014983
   14  CL 6  Y    0.000006  -0.000046  -0.000046   0.018953   0.653301
   15  CL 6  Z    0.000001   0.000045  -0.000048   0.003432   0.756950

                     11         12         13         14         15
                   -0.1331     0.0747     0.2150     0.2221     0.2222
                     A          A          A          A          A   
    1  C  1  S    0.000002   0.336661   0.545745   0.004698  -0.004691
    2  C  1  X   -0.000000   0.670247  -0.397180  -0.001221   0.000717
    3  C  1  Y   -0.000133   0.003244   0.006601  -0.542853   0.431089
    4  C  1  Z    0.000115   0.000714   0.000554   0.431269   0.542727
    5  BR 2  S   -0.000000  -0.128478   0.019090   0.000150  -0.000148
    6  BR 2  X    0.000001   0.632786  -0.032459  -0.000320   0.000332
    7  BR 2  Y    0.000024   0.002891  -0.000554   0.024716  -0.019607
    8  BR 2  Z   -0.000020   0.000633  -0.000080  -0.019639  -0.024689
    9  H  3  S    0.000011  -0.082714  -0.431448   0.566784  -0.137999
   10  H  4  S   -0.000010  -0.082639  -0.425522  -0.411610  -0.419648
   11  H  5  S   -0.000004  -0.082532  -0.419203  -0.166227   0.568722
   12  CL 6  S   -0.000001   0.000045   0.000216   0.000004  -0.000005
   13  CL 6  X   -0.012105   0.000380   0.000996   0.000022  -0.000024
   14  CL 6  Y    0.756861   0.000006   0.000017  -0.000105   0.000085
   15  CL 6  Z   -0.653464   0.000001   0.000003   0.000083   0.000108
 ...... END OF RHF CALCULATION ......
 STEP CPU TIME =     0.61 TOTAL CPU TIME =          3.9 (      0.1 MIN)
 TOTAL WALL CLOCK TIME=          3.9 SECONDS, CPU UTILIZATION IS   100.00%

     ----------------------------------------------------------------
     PROPERTY VALUES FOR THE RHF   SELF-CONSISTENT FIELD WAVEFUNCTION
     ----------------------------------------------------------------

                    -------------
                    MOPAC CHARGES
                    -------------
         ATOM NO.   TYPE          CHARGE        ATOM  ELECTRON DENSITY
           1         C             -0.0413          4.0413
           2         BR            -0.1593          7.1593
           3         H              0.0666          0.9334
           4         H              0.0669          0.9331
           5         H              0.0672          0.9328
           6         CL            -1.0000          8.0000

          ---------------------
          ELECTROSTATIC MOMENTS
          ---------------------

 POINT   1           X           Y           Z (ANGS)      CHARGE
                -1.938441    1.070231   -0.003324       -1.00 (A.U.)
         DX          DY          DZ         /D/  (DEBYE)
    23.824657    0.363500    0.067183   23.827525
 ...... END OF PROPERTY EVALUATION ......
 STEP CPU TIME =     0.03 TOTAL CPU TIME =          4.0 (      0.1 MIN)
 TOTAL WALL CLOCK TIME=          4.0 SECONDS, CPU UTILIZATION IS   100.00%
 ---- SURFACE MAPPING GEOMETRY ----
 COORD 1= 2.100 COORD 2= 0.000
 HAS ENERGY VALUE     -30.766337
 C     -1.54658   1.09202   0.00047
 BR     0.38663   1.10084   0.00241
 H     -1.92083   2.04168  -0.43391
 H     -1.91747   0.99029   1.04104
 H     -1.91229   0.23861  -0.60702
 CL    -7.31328   0.99216  -0.01782
 ----------------------------------

 ATOM      ATOMIC                      COORDINATES (BOHR)
           CHARGE         X                   Y                   Z
 C           6.0    -2.9226124181        2.0636185731        0.0008881712
 BR         35.0     0.7306247586        2.0802859563        0.0045542396
 H           1.0    -3.6298423690        3.8582157546       -0.8199710033
 H           1.0    -3.6234928897        1.8713767484        1.9672803423
 H           1.0    -3.6137041091        0.4509075179       -1.1471014691
 CL         17.0   -14.0090474025        1.8716406996       -0.0342725007

          INTERNUCLEAR DISTANCES (ANGS.)
          ------------------------------

                1 C          2 BR         3 H          4 H          5 H     

   1 C       0.0000000    1.9332311 *  1.1093255 *  1.1093666 *  1.1095479 *
   2 BR      1.9332311 *  0.0000000    2.5298076 *  2.5297926 *  2.5297981 *
   3 H       1.1093255 *  2.5298076 *  0.0000000    1.8113282 *  1.8113811 *
   4 H       1.1093666 *  2.5297926 *  1.8113282 *  0.0000000    1.8113949 *
   5 H       1.1095479 *  2.5297981 *  1.8113811 *  1.8113949 *  0.0000000  
   6 CL      5.8675982    7.8007076    5.6075737    5.5969333    5.5832597  

                6 CL    

   1 C       5.8675982  
   2 BR      7.8007076  
   3 H       5.6075737  
   4 H       5.5969333  
   5 H       5.5832597  
   6 CL      0.0000000  

  * ... LESS THAN  3.000


          ********************
          1 ELECTRON INTEGRALS
          ********************

          **************************
          1 AND 2 ELECTRON INTEGRALS
          **************************

 MOPAC ONE- AND TWO-ELECTRON INTEGRALS REQUIRE       633 WORDS.
 ...... END OF ONE- AND TWO-ELECTRON INTEGRALS......
 STEP CPU TIME =     0.05 TOTAL CPU TIME =          4.0 (      0.1 MIN)
 TOTAL WALL CLOCK TIME=          4.0 SECONDS, CPU UTILIZATION IS   100.00%
 ...... END OF ONE-ELECTRON INTEGRALS ......
 STEP CPU TIME =     0.01 TOTAL CPU TIME =          4.0 (      0.1 MIN)
 TOTAL WALL CLOCK TIME=          4.0 SECONDS, CPU UTILIZATION IS   100.00%

          --------------------------
               R-PM3 SCF CALCULATION
          --------------------------

     NUCLEAR ENERGY =        23.8087386332
     MAXIT =   30     NPUNCH=    2
     EXTRAP=T  DAMP=F  SHIFT=F  RSTRCT=F  DIIS=F  DEM=F  SOSCF=F
     DENSITY MATRIX CONV=  1.00E-05
     MEMORY REQUIRED FOR RHF ITERS=      2274 WORDS.

 ITER EX DEM     TOTAL ENERGY        E CHANGE  DENSITY CHANGE    DIIS ERROR
   1  0  0      -30.7661823157   -30.7661823157   0.000912285   0.000000000
   2  1  0      -30.7661827297    -0.0000004140   0.000373991   0.000000000
   3  2  0      -30.7661827934    -0.0000000636   0.000167818   0.000000000
   4  3  0      -30.7661828066    -0.0000000132   0.000079331   0.000000000
   5  4  0      -30.7661828099    -0.0000000033   0.000039223   0.000000000
   6  5  0      -30.7661828109    -0.0000000009   0.000020108   0.000000000
   7  6  0      -30.7661828112    -0.0000000003   0.000010598   0.000000000
   8  7  0      -30.7661828113    -0.0000000001   0.000005702   0.000000000

          -----------------
          DENSITY CONVERGED
          -----------------
     TIME TO FORM FOCK OPERATORS=       0.1 SECONDS (       0.0 SEC/ITER)
     TIME TO SOLVE SCF EQUATIONS=       0.5 SECONDS (       0.1 SEC/ITER)

 FINAL R-PM3 ENERGY IS      -30.7661828113 AFTER   8 ITERATIONS

 HEAT OF FORMATION IS       -55.55445 KCAL/MOL
 

          ------------
          EIGENVECTORS
          ------------

                      1          2          3          4          5
                   -1.7238    -0.9884    -0.6735    -0.4580    -0.4578
                     A          A          A          A          A   
    1  C  1  S    0.000186   0.761386  -0.090263  -0.000140   0.000201
    2  C  1  X   -0.000030  -0.020678   0.127869  -0.002134   0.003261
    3  C  1  Y   -0.000001   0.000003   0.000539   0.492719  -0.477918
    4  C  1  Z   -0.000000  -0.000001   0.000118  -0.477870  -0.492802
    5  BR 2  S    0.000017   0.160765   0.977350   0.000052  -0.000083
    6  BR 2  X   -0.000033  -0.217400   0.085135  -0.000392   0.000571
    7  BR 2  Y   -0.000000  -0.000980   0.000411   0.238865  -0.231891
    8  BR 2  Z   -0.000000  -0.000216   0.000089  -0.231660  -0.239107
    9  H  3  S    0.000229   0.340099  -0.065982   0.497455  -0.177209
   10  H  4  S    0.000232   0.340000  -0.065941  -0.402019  -0.342124
   11  H  5  S    0.000237   0.339834  -0.065873  -0.095182   0.518972
   12  CL 6  S    1.000000  -0.000390   0.000053   0.000002  -0.000003
   13  CL 6  X    0.000468   0.000228  -0.000069  -0.000007   0.000010
   14  CL 6  Y    0.000010   0.000004  -0.000001   0.000059  -0.000059
   15  CL 6  Z    0.000002   0.000001  -0.000000  -0.000057  -0.000061

                      6          7          8          9         10
                   -0.4246    -0.3337    -0.3337    -0.1330    -0.1329
                     A          A          A          A          A   
    1  C  1  S   -0.030220   0.000041   0.000060  -0.000739   0.000002
    2  C  1  X   -0.613970   0.000472   0.000719   0.000322  -0.000000
    3  C  1  Y   -0.003588  -0.157648  -0.152330   0.000021  -0.000097
    4  C  1  Z   -0.000803   0.152101  -0.157900   0.000004  -0.000113
    5  BR 2  S    0.045718  -0.000017  -0.000024   0.000042  -0.000000
    6  BR 2  X    0.737027  -0.002356  -0.003536  -0.000345   0.000001
    7  BR 2  Y    0.002787   0.678273   0.654292  -0.000005   0.000017
    8  BR 2  Z    0.000605  -0.654382   0.678193  -0.000001   0.000020
    9  H  3  S    0.159617  -0.194346  -0.068666   0.000252   0.000002
   10  H  4  S    0.159940   0.156656  -0.134033   0.000253   0.000007
   11  H  5  S    0.160463   0.037742   0.202796   0.000255  -0.000012
   12  CL 6  S   -0.000101  -0.000001  -0.000001  -0.000468  -0.000001
   13  CL 6  X    0.000307   0.000005   0.000007   0.999813  -0.015018
   14  CL 6  Y    0.000005  -0.000038  -0.000037   0.019009   0.652769
   15  CL 6  Z    0.000001   0.000036  -0.000039   0.003442   0.757408

                     11         12         13         14         15
                   -0.1329     0.0736     0.2136     0.2207     0.2208
                     A          A          A          A          A   
    1  C  1  S    0.000002   0.336563   0.545817   0.004492  -0.004437
    2  C  1  X   -0.000000   0.669800  -0.397005  -0.001063   0.000542
    3  C  1  Y   -0.000110   0.003238   0.006191  -0.544454   0.429270
    4  C  1  Z    0.000094   0.000713   0.000493   0.429442   0.544332
    5  BR 2  S   -0.000000  -0.128406   0.019074   0.000143  -0.000139
    6  BR 2  X    0.000001   0.633411  -0.032424  -0.000309   0.000318
    7  BR 2  Y    0.000019   0.002893  -0.000535   0.024834  -0.019560
    8  BR 2  Z   -0.000017   0.000633  -0.000077  -0.019591  -0.024807
    9  H  3  S    0.000010  -0.082496  -0.431185   0.567345  -0.136179
   10  H  4  S   -0.000008  -0.082422  -0.425534  -0.409899  -0.421196
   11  H  5  S   -0.000003  -0.082317  -0.419543  -0.168015   0.567857
   12  CL 6  S   -0.000001   0.000038   0.000182   0.000004  -0.000004
   13  CL 6  X   -0.012151   0.000319   0.000843   0.000018  -0.000020
   14  CL 6  Y    0.757319   0.000005   0.000014  -0.000087   0.000070
   15  CL 6  Z   -0.652933   0.000001   0.000003   0.000068   0.000089
 ...... END OF RHF CALCULATION ......
 STEP CPU TIME =     0.59 TOTAL CPU TIME =          4.6 (      0.1 MIN)
 TOTAL WALL CLOCK TIME=          4.6 SECONDS, CPU UTILIZATION IS   100.00%

     ----------------------------------------------------------------
     PROPERTY VALUES FOR THE RHF   SELF-CONSISTENT FIELD WAVEFUNCTION
     ----------------------------------------------------------------

                    -------------
                    MOPAC CHARGES
                    -------------
         ATOM NO.   TYPE          CHARGE        ATOM  ELECTRON DENSITY
           1         C             -0.0421          4.0421
           2         BR            -0.1578          7.1578
           3         H              0.0663          0.9337
           4         H              0.0666          0.9334
           5         H              0.0670          0.9330
           6         CL            -1.0000          8.0000

          ---------------------
          ELECTROSTATIC MOMENTS
          ---------------------

 POINT   1           X           Y           Z (ANGS)      CHARGE
                -1.965626    1.069761   -0.003410       -1.00 (A.U.)
         DX          DY          DZ         /D/  (DEBYE)
    24.188817    0.369696    0.068319   24.191739
 ...... END OF PROPERTY EVALUATION ......
 STEP CPU TIME =     0.01 TOTAL CPU TIME =          4.6 (      0.1 MIN)
 TOTAL WALL CLOCK TIME=          4.6 SECONDS, CPU UTILIZATION IS   100.00%
 ---- SURFACE MAPPING GEOMETRY ----
 COORD 1= 2.200 COORD 2= 0.000
 HAS ENERGY VALUE     -30.766183
 C     -1.54658   1.09202   0.00047
 BR     0.38663   1.10084   0.00241
 H     -1.92083   2.04168  -0.43391
 H     -1.91747   0.99029   1.04104
 H     -1.91229   0.23861  -0.60702
 CL    -7.41327   0.99043  -0.01814
 ----------------------------------

 ATOM      ATOMIC                      COORDINATES (BOHR)
           CHARGE         X                   Y                   Z
 C           6.0    -2.9226124181        2.0636185731        0.0008881712
 BR         35.0     0.7306247586        2.0802859563        0.0045542396
 H           1.0    -3.6298423690        3.8582157546       -0.8199710033
 H           1.0    -3.6234928897        1.8713767484        1.9672803423
 H           1.0    -3.6137041091        0.4509075179       -1.1471014691
 CL         17.0   -14.1979907251        1.8683688690       -0.0348717352

          INTERNUCLEAR DISTANCES (ANGS.)
          ------------------------------

                1 C          2 BR         3 H          4 H          5 H     

   1 C       0.0000000    1.9332311 *  1.1093255 *  1.1093666 *  1.1095479 *
   2 BR      1.9332311 *  0.0000000    2.5298076 *  2.5297926 *  2.5297981 *
   3 H       1.1093255 *  2.5298076 *  0.0000000    1.8113282 *  1.8113811 *
   4 H       1.1093666 *  2.5297926 *  1.8113282 *  0.0000000    1.8113949 *
   5 H       1.1095479 *  2.5297981 *  1.8113811 *  1.8113949 *  0.0000000  
   6 CL      5.9675982    7.9007071    5.7058371    5.6952018    5.6815348  

                6 CL    

   1 C       5.9675982  
   2 BR      7.9007071  
   3 H       5.7058371  
   4 H       5.6952018  
   5 H       5.6815348  
   6 CL      0.0000000  

  * ... LESS THAN  3.000


          ********************
          1 ELECTRON INTEGRALS
          ********************

          **************************
          1 AND 2 ELECTRON INTEGRALS
          **************************

 MOPAC ONE- AND TWO-ELECTRON INTEGRALS REQUIRE       633 WORDS.
 ...... END OF ONE- AND TWO-ELECTRON INTEGRALS......
 STEP CPU TIME =     0.07 TOTAL CPU TIME =          4.7 (      0.1 MIN)
 TOTAL WALL CLOCK TIME=          4.7 SECONDS, CPU UTILIZATION IS   100.00%
 ...... END OF ONE-ELECTRON INTEGRALS ......
 STEP CPU TIME =     0.02 TOTAL CPU TIME =          4.7 (      0.1 MIN)
 TOTAL WALL CLOCK TIME=          4.7 SECONDS, CPU UTILIZATION IS   100.00%

          --------------------------
               R-PM3 SCF CALCULATION
          --------------------------

     NUCLEAR ENERGY =        23.6943472936
     MAXIT =   30     NPUNCH=    2
     EXTRAP=T  DAMP=F  SHIFT=F  RSTRCT=F  DIIS=F  DEM=F  SOSCF=F
     DENSITY MATRIX CONV=  1.00E-05
     MEMORY REQUIRED FOR RHF ITERS=      2274 WORDS.

 ITER EX DEM     TOTAL ENERGY        E CHANGE  DENSITY CHANGE    DIIS ERROR
   1  0  0      -30.7660353677   -30.7660353677   0.000874298   0.000000000
   2  1  0      -30.7660357449    -0.0000003772   0.000359100   0.000000000
   3  2  0      -30.7660358032    -0.0000000584   0.000161142   0.000000000
   4  3  0      -30.7660358154    -0.0000000122   0.000076177   0.000000000
   5  4  0      -30.7660358185    -0.0000000031   0.000037664   0.000000000
   6  5  0      -30.7660358194    -0.0000000009   0.000019309   0.000000000
   7  6  0      -30.7660358196    -0.0000000003   0.000010177   0.000000000

          ----------------
          ENERGY CONVERGED
          ----------------
     TIME TO FORM FOCK OPERATORS=       0.1 SECONDS (       0.0 SEC/ITER)
     TIME TO SOLVE SCF EQUATIONS=       0.4 SECONDS (       0.1 SEC/ITER)

 FINAL R-PM3 ENERGY IS      -30.7660358196 AFTER   7 ITERATIONS

 HEAT OF FORMATION IS       -55.46221 KCAL/MOL
 

          ------------
          EIGENVECTORS
          ------------

                      1          2          3          4          5
                   -1.7236    -0.9898    -0.6748    -0.4593    -0.4591
                     A          A          A          A          A   
    1  C  1  S    0.000156   0.761365  -0.090243  -0.000136   0.000196
    2  C  1  X   -0.000025  -0.020865   0.127953  -0.002120   0.003247
    3  C  1  Y   -0.000001  -0.000001   0.000541   0.492353  -0.478531
    4  C  1  Z   -0.000000  -0.000002   0.000119  -0.478484  -0.492434
    5  BR 2  S    0.000015   0.160744   0.977352   0.000050  -0.000081
    6  BR 2  X   -0.000028  -0.217219   0.084986  -0.000404   0.000589
    7  BR 2  Y   -0.000000  -0.000979   0.000410   0.237836  -0.231355
    8  BR 2  Z   -0.000000  -0.000216   0.000088  -0.231131  -0.238070
    9  H  3  S    0.000192   0.340149  -0.065988   0.497574  -0.177818
   10  H  4  S    0.000195   0.340053  -0.065948  -0.402614  -0.341924
   11  H  5  S    0.000199   0.339891  -0.065881  -0.094717   0.519395
   12  CL 6  S    1.000000  -0.000327   0.000044   0.000002  -0.000003
   13  CL 6  X    0.000445   0.000191  -0.000058  -0.000006   0.000008
   14  CL 6  Y    0.000009   0.000003  -0.000001   0.000048  -0.000048
   15  CL 6  Z    0.000002   0.000001  -0.000000  -0.000047  -0.000050

                      6          7          8          9         10
                   -0.4257    -0.3346    -0.3346    -0.1328    -0.1327
                     A          A          A          A          A   
    1  C  1  S   -0.030664   0.000040   0.000058  -0.000622   0.000002
    2  C  1  X   -0.614521   0.000472   0.000720   0.000271  -0.000000
    3  C  1  Y   -0.003567  -0.156876  -0.151847   0.000017  -0.000080
    4  C  1  Z   -0.000799   0.151625  -0.157120   0.000003  -0.000093
    5  BR 2  S    0.045941  -0.000017  -0.000024   0.000035  -0.000000
    6  BR 2  X    0.736586  -0.002357  -0.003543  -0.000289   0.000001
    7  BR 2  Y    0.002804   0.677972   0.655166  -0.000004   0.000014
    8  BR 2  Z    0.000608  -0.655253   0.677894  -0.000001   0.000016
    9  H  3  S    0.159552  -0.193760  -0.068652   0.000215   0.000002
   10  H  4  S    0.159864   0.156350  -0.133531   0.000216   0.000006
   11  H  5  S    0.160372   0.037460   0.202278   0.000217  -0.000010
   12  CL 6  S   -0.000085  -0.000001  -0.000001  -0.000446  -0.000001
   13  CL 6  X    0.000255   0.000004   0.000005   0.999812  -0.015052
   14  CL 6  Y    0.000004  -0.000031  -0.000030   0.019064   0.652218
   15  CL 6  Z    0.000001   0.000030  -0.000032   0.003452   0.757882

                     11         12         13         14         15
                   -0.1327     0.0725     0.2121     0.2194     0.2194
                     A          A          A          A          A   
    1  C  1  S    0.000001   0.336469   0.545885   0.004299  -0.004201
    2  C  1  X   -0.000000   0.669371  -0.396839  -0.000915   0.000379
    3  C  1  Y   -0.000090   0.003232   0.005809  -0.546107   0.427363
    4  C  1  Z    0.000078   0.000712   0.000436   0.427529   0.545987
    5  BR 2  S   -0.000000  -0.128338   0.019059   0.000136  -0.000131
    6  BR 2  X    0.000001   0.634008  -0.032392  -0.000299   0.000305
    7  BR 2  Y    0.000016   0.002896  -0.000517   0.024952  -0.019508
    8  BR 2  Z   -0.000014   0.000634  -0.000074  -0.019538  -0.024927
    9  H  3  S    0.000008  -0.082288  -0.430940   0.567912  -0.134265
   10  H  4  S   -0.000007  -0.082216  -0.425544  -0.408136  -0.422787
   11  H  5  S   -0.000003  -0.082113  -0.419861  -0.169893   0.566977
   12  CL 6  S   -0.000000   0.000032   0.000153   0.000003  -0.000003
   13  CL 6  X   -0.012197   0.000268   0.000712   0.000015  -0.000016
   14  CL 6  Y    0.757792   0.000004   0.000012  -0.000072   0.000058
   15  CL 6  Z   -0.652382   0.000001   0.000002   0.000056   0.000074
 ...... END OF RHF CALCULATION ......
 STEP CPU TIME =     0.56 TOTAL CPU TIME =          5.3 (      0.1 MIN)
 TOTAL WALL CLOCK TIME=          5.3 SECONDS, CPU UTILIZATION IS   100.00%

     ----------------------------------------------------------------
     PROPERTY VALUES FOR THE RHF   SELF-CONSISTENT FIELD WAVEFUNCTION
     ----------------------------------------------------------------

                    -------------
                    MOPAC CHARGES
                    -------------
         ATOM NO.   TYPE          CHARGE        ATOM  ELECTRON DENSITY
           1         C             -0.0428          4.0428
           2         BR            -0.1563          7.1563
           3         H              0.0661          0.9339
           4         H              0.0663          0.9337
           5         H              0.0667          0.9333
           6         CL            -1.0000          8.0000

          ---------------------
          ELECTROSTATIC MOMENTS
          ---------------------

 POINT   1           X           Y           Z (ANGS)      CHARGE
                -1.992812    1.069290   -0.003496       -1.00 (A.U.)
         DX          DY          DZ         /D/  (DEBYE)
    24.552346    0.375887    0.069455   24.555321
 ...... END OF PROPERTY EVALUATION ......
 STEP CPU TIME =     0.01 TOTAL CPU TIME =          5.3 (      0.1 MIN)
 TOTAL WALL CLOCK TIME=          5.3 SECONDS, CPU UTILIZATION IS   100.00%
 ---- SURFACE MAPPING GEOMETRY ----
 COORD 1= 2.300 COORD 2= 0.000
 HAS ENERGY VALUE     -30.766036
 C     -1.54658   1.09202   0.00047
 BR     0.38663   1.10084   0.00241
 H     -1.92083   2.04168  -0.43391
 H     -1.91747   0.99029   1.04104
 H     -1.91229   0.23861  -0.60702
 CL    -7.51325   0.98870  -0.01845
 ----------------------------------

 ATOM      ATOMIC                      COORDINATES (BOHR)
           CHARGE         X                   Y                   Z
 C           6.0    -2.9226124181        2.0636185731        0.0008881712
 BR         35.0     0.7306247586        2.0802859563        0.0045542396
 H           1.0    -3.6298423690        3.8582157546       -0.8199710033
 H           1.0    -3.6234928897        1.8713767484        1.9672803423
 H           1.0    -3.6137041091        0.4509075179       -1.1471014691
 CL         17.0   -14.3869340476        1.8650970384       -0.0354709697

          INTERNUCLEAR DISTANCES (ANGS.)
          ------------------------------

                1 C          2 BR         3 H          4 H          5 H     

   1 C       0.0000000    1.9332311 *  1.1093255 *  1.1093666 *  1.1095479 *
   2 BR      1.9332311 *  0.0000000    2.5298076 *  2.5297926 *  2.5297981 *
   3 H       1.1093255 *  2.5298076 *  0.0000000    1.8113282 *  1.8113811 *
   4 H       1.1093666 *  2.5297926 *  1.8113282 *  0.0000000    1.8113949 *
   5 H       1.1095479 *  2.5297981 *  1.8113811 *  1.8113949 *  0.0000000  
   6 CL      6.0675982    8.0007066    5.8041598    5.7935295    5.7798690  

                6 CL    

   1 C       6.0675982  
   2 BR      8.0007066  
   3 H       5.8041598  
   4 H       5.7935295  
   5 H       5.7798690  
   6 CL      0.0000000  

  * ... LESS THAN  3.000


          ********************
          1 ELECTRON INTEGRALS
          ********************

          **************************
          1 AND 2 ELECTRON INTEGRALS
          **************************

 MOPAC ONE- AND TWO-ELECTRON INTEGRALS REQUIRE       633 WORDS.
 ...... END OF ONE- AND TWO-ELECTRON INTEGRALS......
 STEP CPU TIME =     0.06 TOTAL CPU TIME =          5.3 (      0.1 MIN)
 TOTAL WALL CLOCK TIME=          5.3 SECONDS, CPU UTILIZATION IS   100.00%
 ...... END OF ONE-ELECTRON INTEGRALS ......
 STEP CPU TIME =     0.01 TOTAL CPU TIME =          5.4 (      0.1 MIN)
 TOTAL WALL CLOCK TIME=          5.4 SECONDS, CPU UTILIZATION IS   100.00%

          --------------------------
               R-PM3 SCF CALCULATION
          --------------------------

     NUCLEAR ENERGY =        23.5832846105
     MAXIT =   30     NPUNCH=    2
     EXTRAP=T  DAMP=F  SHIFT=F  RSTRCT=F  DIIS=F  DEM=F  SOSCF=F
     DENSITY MATRIX CONV=  1.00E-05
     MEMORY REQUIRED FOR RHF ITERS=      2274 WORDS.

 ITER EX DEM     TOTAL ENERGY        E CHANGE  DENSITY CHANGE    DIIS ERROR
   1  0  0      -30.7658953640   -30.7658953640   0.000839765   0.000000000
   2  1  0      -30.7658957100    -0.0000003460   0.000346280   0.000000000
   3  2  0      -30.7658957641    -0.0000000541   0.000155524   0.000000000
   4  3  0      -30.7658957754    -0.0000000113   0.000073580   0.000000000
   5  4  0      -30.7658957783    -0.0000000029   0.000036405   0.000000000
   6  5  0      -30.7658957791    -0.0000000008   0.000018673   0.000000000
   7  6  0      -30.7658957794    -0.0000000002   0.000009847   0.000000000

          -----------------
          DENSITY CONVERGED
          -----------------
     TIME TO FORM FOCK OPERATORS=       0.1 SECONDS (       0.0 SEC/ITER)
     TIME TO SOLVE SCF EQUATIONS=       0.4 SECONDS (       0.1 SEC/ITER)

 FINAL R-PM3 ENERGY IS      -30.7658957794 AFTER   7 ITERATIONS

 HEAT OF FORMATION IS       -55.37433 KCAL/MOL
 

          ------------
          EIGENVECTORS
          ------------

                      1          2          3          4          5
                   -1.7234    -0.9911    -0.6761    -0.4605    -0.4604
                     A          A          A          A          A   
    1  C  1  S    0.000130   0.761345  -0.090226  -0.000131   0.000190
    2  C  1  X   -0.000021  -0.021044   0.128032  -0.002106   0.003234
    3  C  1  Y   -0.000001  -0.000004   0.000543   0.491981  -0.479135
    4  C  1  Z   -0.000000  -0.000002   0.000119  -0.479091  -0.492060
    5  BR 2  S    0.000012   0.160725   0.977354   0.000049  -0.000079
    6  BR 2  X   -0.000023  -0.217047   0.084842  -0.000415   0.000606
    7  BR 2  Y   -0.000000  -0.000979   0.000409   0.236845  -0.230852
    8  BR 2  Z   -0.000000  -0.000216   0.000088  -0.230634  -0.237073
    9  H  3  S    0.000161   0.340197  -0.065995   0.497679  -0.178422
   10  H  4  S    0.000164   0.340104  -0.065956  -0.403196  -0.341715
   11  H  5  S    0.000167   0.339945  -0.065890  -0.094249   0.519803
   12  CL 6  S    1.000000  -0.000274   0.000037   0.000002  -0.000002
   13  CL 6  X    0.000424   0.000159  -0.000048  -0.000005   0.000007
   14  CL 6  Y    0.000009   0.000003  -0.000001   0.000040  -0.000040
   15  CL 6  Z    0.000002   0.000000  -0.000000  -0.000039  -0.000041

                      6          7          8          9         10
                   -0.4268    -0.3355    -0.3355    -0.1327    -0.1325
                     A          A          A          A          A   
    1  C  1  S   -0.031091   0.000039   0.000056  -0.000523   0.000001
    2  C  1  X   -0.615051   0.000472   0.000721   0.000228  -0.000000
    3  C  1  Y   -0.003547  -0.156135  -0.151391   0.000014  -0.000066
    4  C  1  Z   -0.000796   0.151175  -0.156372   0.000003  -0.000077
    5  BR 2  S    0.046156  -0.000017  -0.000024   0.000029  -0.000000
    6  BR 2  X    0.736159  -0.002357  -0.003550  -0.000241   0.000001
    7  BR 2  Y    0.002819   0.677659   0.656023  -0.000003   0.000011
    8  BR 2  Z    0.000611  -0.656108   0.677583  -0.000001   0.000013
    9  H  3  S    0.159492  -0.193198  -0.068645   0.000182   0.000002
   10  H  4  S    0.159793   0.156062  -0.133047   0.000183   0.000005
   11  H  5  S    0.160286   0.037185   0.201784   0.000184  -0.000008
   12  CL 6  S   -0.000071  -0.000001  -0.000001  -0.000424  -0.000001
   13  CL 6  X    0.000212   0.000003   0.000005   0.999811  -0.015085
   14  CL 6  Y    0.000003  -0.000025  -0.000025   0.019117   0.651645
   15  CL 6  Z    0.000001   0.000024  -0.000026   0.003461   0.758374

                     11         12         13         14         15
                   -0.1325     0.0714     0.2107     0.2180     0.2181
                     A          A          A          A          A   
    1  C  1  S    0.000001   0.336380   0.545950   0.004119  -0.003979
    2  C  1  X   -0.000000   0.668956  -0.396684  -0.000775   0.000228
    3  C  1  Y   -0.000075   0.003226   0.005451  -0.547813   0.425363
    4  C  1  Z    0.000064   0.000711   0.000382   0.425523   0.547697
    5  BR 2  S   -0.000000  -0.128269   0.019044   0.000130  -0.000124
    6  BR 2  X    0.000000   0.634584  -0.032362  -0.000289   0.000292
    7  BR 2  Y    0.000013   0.002898  -0.000501   0.025072  -0.019449
    8  BR 2  Z   -0.000011   0.000634  -0.000072  -0.019479  -0.025047
    9  H  3  S    0.000007  -0.082091  -0.430711   0.568485  -0.132250
   10  H  4  S   -0.000006  -0.082020  -0.425554  -0.406315  -0.424425
   11  H  5  S   -0.000002  -0.081919  -0.420157  -0.171865   0.566079
   12  CL 6  S   -0.000000   0.000027   0.000129   0.000003  -0.000003
   13  CL 6  X   -0.012242   0.000225   0.000601   0.000013  -0.000013
   14  CL 6  Y    0.758283   0.000004   0.000010  -0.000060   0.000048
   15  CL 6  Z   -0.651811   0.000001   0.000002   0.000046   0.000061
 ...... END OF RHF CALCULATION ......
 STEP CPU TIME =     0.45 TOTAL CPU TIME =          5.8 (      0.1 MIN)
 TOTAL WALL CLOCK TIME=          5.8 SECONDS, CPU UTILIZATION IS   100.00%

     ----------------------------------------------------------------
     PROPERTY VALUES FOR THE RHF   SELF-CONSISTENT FIELD WAVEFUNCTION
     ----------------------------------------------------------------

                    -------------
                    MOPAC CHARGES
                    -------------
         ATOM NO.   TYPE          CHARGE        ATOM  ELECTRON DENSITY
           1         C             -0.0436          4.0436
           2         BR            -0.1548          7.1548
           3         H              0.0658          0.9342
           4         H              0.0661          0.9339
           5         H              0.0665          0.9335
           6         CL            -1.0000          8.0000

          ---------------------
          ELECTROSTATIC MOMENTS
          ---------------------

 POINT   1           X           Y           Z (ANGS)      CHARGE
                -2.019997    1.068819   -0.003583       -1.00 (A.U.)
         DX          DY          DZ         /D/  (DEBYE)
    24.915351    0.382071    0.070589   24.918380
 ...... END OF PROPERTY EVALUATION ......
 STEP CPU TIME =     0.02 TOTAL CPU TIME =          5.8 (      0.1 MIN)
 TOTAL WALL CLOCK TIME=          5.8 SECONDS, CPU UTILIZATION IS   100.00%
 ---- SURFACE MAPPING GEOMETRY ----
 COORD 1= 2.400 COORD 2= 0.000
 HAS ENERGY VALUE     -30.765896
 C     -1.54658   1.09202   0.00047
 BR     0.38663   1.10084   0.00241
 H     -1.92083   2.04168  -0.43391
 H     -1.91747   0.99029   1.04104
 H     -1.91229   0.23861  -0.60702
 CL    -7.61324   0.98697  -0.01877
 ----------------------------------
 ... DONE WITH POTENTIAL SURFACE SCAN ...
 STEP CPU TIME =     0.01 TOTAL CPU TIME =          5.8 (      0.1 MIN)
 TOTAL WALL CLOCK TIME=          5.8 SECONDS, CPU UTILIZATION IS   100.00%
                   580000  WORDS OF DYNAMIC MEMORY USED
 EXECUTION OF GAMESS TERMINATED NORMALLY Fri Sep 11 09:16:19 2020
 DDI: 263640 bytes (0.3 MB / 0 MWords) used by master data server.

 ----------------------------------------
 CPU timing information for all processes
 ========================================
 0: 0.531250 + 2.062500 = 2.593750
 1: 0.046875 + 0.031250 = 0.078125
 ----------------------------------------
           Disk usage (in bytes)       
 ========================================
09/11/2020  09:15 a. m.               689 SN2.F05
09/11/2020  09:16 a. m.                 0 SN2.F08
09/11/2020  09:16 a. m.        52,428,800 SN2.F10
09/11/2020  09:15 a. m.            16,804 SN2.GMS.ENV
09/11/2020  09:16 a. m.               117 SN2.processes.mpd
 ----------------------------------------
            Local date and time          
 ========================================
09/11/2020 -  9:16:27.50                          
